 DIM-GROUP
 3  1
 PRIMVEC
 4.0178100000E+00   0.0000000000E+00   0.0000000000E+00
 5.1184390385E-18   4.0178100000E+00   0.0000000000E+00
 6.3237877933E-18   6.3237877933E-18   4.9639700000E+00
 PRIMCOORD
            4 1
       82    4.0934969137E-18    2.0089050000E+00    1.2043584014E+00
        8    0.0000000000E+00    0.0000000000E+00    0.0000000000E+00
        8    2.0089050000E+00    2.0089050000E+00    0.0000000000E+00
       82    2.0089050000E+00    4.7895103989E-18    3.7596115986E+00
 ATOMS
       82    4.0934969137E-18    2.0089050000E+00    1.2043584014E+00
        8    0.0000000000E+00    0.0000000000E+00    0.0000000000E+00
        8    2.0089050000E+00    2.0089050000E+00    0.0000000000E+00
       82    2.0089050000E+00    4.7895103989E-18    3.7596115986E+00
 BEGIN_BLOCK_DATAGRID3D
 datagrids
 DATAGRID_3D_DENSITY
           45          45          54
 0.0 0.0 0.0 
 4.0178100000E+00   0.0000000000E+00   0.0000000000E+00
 5.1184390385E-18   4.0178100000E+00   0.0000000000E+00
 6.3237877933E-18   6.3237877933E-18   4.9639700000E+00
-0.9128541185E+01-0.9063536229E+01-0.8670212923E+01-0.7402021390E+01-0.5184526388E+01-0.2812377073E+01
-0.1182635511E+01-0.6535190701E+00-0.6363465955E+00-0.5135859573E+00-0.3953177487E+00-0.3401425112E+00
-0.3098455028E+00-0.3113205157E+00-0.3252971598E+00-0.3559218825E+00-0.3893215223E+00-0.4295410770E+00
-0.4676611037E+00-0.5047212811E+00-0.5354937876E+00-0.5573582785E+00-0.5688307626E+00-0.5688307626E+00
-0.5573582785E+00-0.5354937876E+00-0.5047212811E+00-0.4676611037E+00-0.4295410770E+00-0.3893215223E+00
-0.3559218825E+00-0.3252971598E+00-0.3113205157E+00-0.3098455028E+00-0.3401425112E+00-0.3953177487E+00
-0.5135859573E+00-0.6363465955E+00-0.6535190701E+00-0.1182635511E+01-0.2812377073E+01-0.5184526388E+01
-0.7402021390E+01-0.8670212923E+01-0.9063536229E+01-0.9063536229E+01-0.8968278536E+01-0.8468759225E+01
-0.7093642018E+01-0.4880206754E+01-0.2605125340E+01-0.1097907842E+01-0.6458066239E+00-0.6325480924E+00
-0.5029809532E+00-0.3892311405E+00-0.3357688641E+00-0.3074153533E+00-0.3086777947E+00-0.3213597416E+00
-0.3514152480E+00-0.3852116464E+00-0.4260172396E+00-0.4641705464E+00-0.5006303485E+00-0.5309926688E+00
-0.5530799159E+00-0.5638013189E+00-0.5638013189E+00-0.5530799159E+00-0.5309926688E+00-0.5006303485E+00
-0.4641705464E+00-0.4260172396E+00-0.3852116464E+00-0.3514152480E+00-0.3213597416E+00-0.3086777947E+00
-0.3074153533E+00-0.3357688641E+00-0.3892311405E+00-0.5029809532E+00-0.6325480924E+00-0.6458066239E+00
-0.1097907842E+01-0.2605125340E+01-0.4880206754E+01-0.7093642018E+01-0.8468759225E+01-0.8968278536E+01
-0.8670212923E+01-0.8468759225E+01-0.7698067605E+01-0.6133060692E+01-0.4021609390E+01-0.2057561396E+01
-0.8988756456E+00-0.6343883019E+00-0.6156041398E+00-0.4742785755E+00-0.3747747698E+00-0.3228143928E+00
-0.2976604179E+00-0.2994986130E+00-0.3129241431E+00-0.3430300662E+00-0.3757202883E+00-0.4142528349E+00
-0.4502997810E+00-0.4852441293E+00-0.5136680831E+00-0.5357593984E+00-0.5464625919E+00-0.5464625919E+00
-0.5357593984E+00-0.5136680831E+00-0.4852441293E+00-0.4502997810E+00-0.4142528349E+00-0.3757202883E+00
-0.3430300662E+00-0.3129241431E+00-0.2994986130E+00-0.2976604179E+00-0.3228143928E+00-0.3747747698E+00
-0.4742785755E+00-0.6156041398E+00-0.6343883019E+00-0.8988756456E+00-0.2057561396E+01-0.4021609390E+01
-0.6133060692E+01-0.7698067605E+01-0.8468759225E+01-0.7402021390E+01-0.7093642018E+01-0.6133060692E+01
-0.4583558811E+01-0.2810818205E+01-0.1376529948E+01-0.7094606266E+00-0.6329717246E+00-0.5750728932E+00
-0.4316703444E+00-0.3519581377E+00-0.3029100989E+00-0.2839121076E+00-0.2852503316E+00-0.2987948483E+00
-0.3270353507E+00-0.3585921026E+00-0.3956047254E+00-0.4302950132E+00-0.4646500242E+00-0.4901169578E+00
-0.5100716168E+00-0.5205750557E+00-0.5205750557E+00-0.5100716168E+00-0.4901169578E+00-0.4646500242E+00
-0.4302950132E+00-0.3956047254E+00-0.3585921026E+00-0.3270353507E+00-0.2987948483E+00-0.2852503316E+00
-0.2839121076E+00-0.3029100989E+00-0.3519581377E+00-0.4316703444E+00-0.5750728932E+00-0.6329717246E+00
-0.7094606266E+00-0.1376529948E+01-0.2810818205E+01-0.4583558811E+01-0.6133060692E+01-0.7093642018E+01
-0.5184526388E+01-0.4880206754E+01-0.4021609390E+01-0.2810818205E+01-0.1615073205E+01-0.8444523404E+00
-0.6301367943E+00-0.6211418451E+00-0.5058797292E+00-0.3840240120E+00-0.3211332863E+00-0.2780847157E+00
-0.2660710377E+00-0.2666135319E+00-0.2814456808E+00-0.3072979429E+00-0.3378909315E+00-0.3725712188E+00
-0.4040264366E+00-0.4352524454E+00-0.4584439715E+00-0.4764590539E+00-0.4854435753E+00-0.4854435753E+00
-0.4764590539E+00-0.4584439715E+00-0.4352524454E+00-0.4040264366E+00-0.3725712188E+00-0.3378909315E+00
-0.3072979429E+00-0.2814456808E+00-0.2666135319E+00-0.2660710377E+00-0.2780847157E+00-0.3211332863E+00
-0.3840240120E+00-0.5058797292E+00-0.6211418451E+00-0.6301367943E+00-0.8444523404E+00-0.1615073205E+01
-0.2810818205E+01-0.4021609390E+01-0.4880206754E+01-0.2812377073E+01-0.2605125340E+01-0.2057561396E+01
-0.1376529948E+01-0.8444523404E+00-0.6373068138E+00-0.6266648779E+00-0.5557609771E+00-0.4222245653E+00
-0.3396948078E+00-0.2862776459E+00-0.2529315106E+00-0.2442180030E+00-0.2454249026E+00-0.2617061747E+00
-0.2844335925E+00-0.3129693668E+00-0.3441439520E+00-0.3738917798E+00-0.4015378238E+00-0.4233983065E+00
-0.4404792450E+00-0.4484563934E+00-0.4484563934E+00-0.4404792450E+00-0.4233983065E+00-0.4015378238E+00
-0.3738917798E+00-0.3441439520E+00-0.3129693668E+00-0.2844335925E+00-0.2617061747E+00-0.2454249026E+00
-0.2442180030E+00-0.2529315106E+00-0.2862776459E+00-0.3396948078E+00-0.4222245653E+00-0.5557609771E+00
-0.6266648779E+00-0.6373068138E+00-0.8444523404E+00-0.1376529948E+01-0.2057561396E+01-0.2605125340E+01
-0.1182635511E+01-0.1097907842E+01-0.8988756456E+00-0.7094606266E+00-0.6301367943E+00-0.6266648779E+00
-0.5716092177E+00-0.4495955872E+00-0.3542745862E+00-0.2955686379E+00-0.2488379973E+00-0.2284097472E+00
-0.2201121788E+00-0.2236178172E+00-0.2384282232E+00-0.2591801867E+00-0.2869745347E+00-0.3144928600E+00
-0.3428477233E+00-0.3667431653E+00-0.3865740420E+00-0.4007641118E+00-0.4078421339E+00-0.4078421339E+00
-0.4007641118E+00-0.3865740420E+00-0.3667431653E+00-0.3428477233E+00-0.3144928600E+00-0.2869745347E+00
-0.2591801867E+00-0.2384282232E+00-0.2236178172E+00-0.2201121788E+00-0.2284097472E+00-0.2488379973E+00
-0.2955686379E+00-0.3542745862E+00-0.4495955872E+00-0.5716092177E+00-0.6266648779E+00-0.6301367943E+00
-0.7094606266E+00-0.8988756456E+00-0.1097907842E+01-0.6535190701E+00-0.6458066239E+00-0.6343883019E+00
-0.6329717246E+00-0.6211418451E+00-0.5557609771E+00-0.4495955872E+00-0.3611034450E+00-0.3015011295E+00
-0.2503717587E+00-0.2181990439E+00-0.2037351334E+00-0.1947105953E+00-0.2024346653E+00-0.2164275321E+00
-0.2365898110E+00-0.2614927303E+00-0.2847879397E+00-0.3104372563E+00-0.3317862421E+00-0.3515210639E+00
-0.3638797543E+00-0.3708763212E+00-0.3708763212E+00-0.3638797543E+00-0.3515210639E+00-0.3317862421E+00
-0.3104372563E+00-0.2847879397E+00-0.2614927303E+00-0.2365898110E+00-0.2164275321E+00-0.2024346653E+00
-0.1947105953E+00-0.2037351334E+00-0.2181990439E+00-0.2503717587E+00-0.3015011295E+00-0.3611034450E+00
-0.4495955872E+00-0.5557609771E+00-0.6211418451E+00-0.6329717246E+00-0.6343883019E+00-0.6458066239E+00
-0.6363465955E+00-0.6325480924E+00-0.6156041398E+00-0.5750728932E+00-0.5058797292E+00-0.4222245653E+00
-0.3542745862E+00-0.3015011295E+00-0.2512691484E+00-0.2149214918E+00-0.1936566735E+00-0.1789917796E+00
-0.1753406782E+00-0.1835275197E+00-0.1949534733E+00-0.2137881353E+00-0.2362914201E+00-0.2599904584E+00
-0.2841934108E+00-0.3031760496E+00-0.3207158699E+00-0.3315514247E+00-0.3382495337E+00-0.3382495337E+00
-0.3315514247E+00-0.3207158699E+00-0.3031760496E+00-0.2841934108E+00-0.2599904584E+00-0.2362914201E+00
-0.2137881353E+00-0.1949534733E+00-0.1835275197E+00-0.1753406782E+00-0.1789917796E+00-0.1936566735E+00
-0.2149214918E+00-0.2512691484E+00-0.3015011295E+00-0.3542745862E+00-0.4222245653E+00-0.5058797292E+00
-0.5750728932E+00-0.6156041398E+00-0.6325480924E+00-0.5135859573E+00-0.5029809532E+00-0.4742785755E+00
-0.4316703444E+00-0.3840240120E+00-0.3396948078E+00-0.2955686379E+00-0.2503717587E+00-0.2149214918E+00
-0.1907428613E+00-0.1698343187E+00-0.1596243904E+00-0.1602733593E+00-0.1650928414E+00-0.1789398239E+00
-0.1990993677E+00-0.2197295020E+00-0.2413215709E+00-0.2620631238E+00-0.2807502829E+00-0.2972089655E+00
-0.3089055734E+00-0.3152527684E+00-0.3152527684E+00-0.3089055734E+00-0.2972089655E+00-0.2807502829E+00
-0.2620631238E+00-0.2413215709E+00-0.2197295020E+00-0.1990993677E+00-0.1789398239E+00-0.1650928414E+00
-0.1602733593E+00-0.1596243904E+00-0.1698343187E+00-0.1907428613E+00-0.2149214918E+00-0.2503717587E+00
-0.2955686379E+00-0.3396948078E+00-0.3840240120E+00-0.4316703444E+00-0.4742785755E+00-0.5029809532E+00
-0.3953177487E+00-0.3892311405E+00-0.3747747698E+00-0.3519581377E+00-0.3211332863E+00-0.2862776459E+00
-0.2488379973E+00-0.2181990439E+00-0.1936566735E+00-0.1698343187E+00-0.1543367733E+00-0.1484112651E+00
-0.1477401044E+00-0.1547962196E+00-0.1702840023E+00-0.1871127515E+00-0.2077026106E+00-0.2317091907E+00
-0.2545462858E+00-0.2755184937E+00-0.2910130216E+00-0.3027979466E+00-0.3081795309E+00-0.3081795309E+00
-0.3027979466E+00-0.2910130216E+00-0.2755184937E+00-0.2545462858E+00-0.2317091907E+00-0.2077026106E+00
-0.1871127515E+00-0.1702840023E+00-0.1547962196E+00-0.1477401044E+00-0.1484112651E+00-0.1543367733E+00
-0.1698343187E+00-0.1936566735E+00-0.2181990439E+00-0.2488379973E+00-0.2862776459E+00-0.3211332863E+00
-0.3519581377E+00-0.3747747698E+00-0.3892311405E+00-0.3401425112E+00-0.3357688641E+00-0.3228143928E+00
-0.3029100989E+00-0.2780847157E+00-0.2529315106E+00-0.2284097472E+00-0.2037351334E+00-0.1789917796E+00
-0.1596243904E+00-0.1484112651E+00-0.1402594442E+00-0.1425025134E+00-0.1531469057E+00-0.1664739573E+00
-0.1858002724E+00-0.2106732993E+00-0.2357008432E+00-0.2579301849E+00-0.2792464919E+00-0.2973180194E+00
-0.3118731512E+00-0.3193390875E+00-0.3193390875E+00-0.3118731512E+00-0.2973180194E+00-0.2792464919E+00
-0.2579301849E+00-0.2357008432E+00-0.2106732993E+00-0.1858002724E+00-0.1664739573E+00-0.1531469057E+00
-0.1425025134E+00-0.1402594442E+00-0.1484112651E+00-0.1596243904E+00-0.1789917796E+00-0.2037351334E+00
-0.2284097472E+00-0.2529315106E+00-0.2780847157E+00-0.3029100989E+00-0.3228143928E+00-0.3357688641E+00
-0.3098455028E+00-0.3074153533E+00-0.2976604179E+00-0.2839121076E+00-0.2660710377E+00-0.2442180030E+00
-0.2201121788E+00-0.1947105953E+00-0.1753406782E+00-0.1602733593E+00-0.1477401044E+00-0.1425025134E+00
-0.1466485758E+00-0.1555374168E+00-0.1731532675E+00-0.1981899355E+00-0.2223741099E+00-0.2502967868E+00
-0.2810584232E+00-0.3115221296E+00-0.3374601004E+00-0.3544804213E+00-0.3637998455E+00-0.3637998455E+00
-0.3544804213E+00-0.3374601004E+00-0.3115221296E+00-0.2810584232E+00-0.2502967868E+00-0.2223741099E+00
-0.1981899355E+00-0.1731532675E+00-0.1555374168E+00-0.1466485758E+00-0.1425025134E+00-0.1477401044E+00
-0.1602733593E+00-0.1753406782E+00-0.1947105953E+00-0.2201121788E+00-0.2442180030E+00-0.2660710377E+00
-0.2839121076E+00-0.2976604179E+00-0.3074153533E+00-0.3113205157E+00-0.3086777947E+00-0.2994986130E+00
-0.2852503316E+00-0.2666135319E+00-0.2454249026E+00-0.2236178172E+00-0.2024346653E+00-0.1835275197E+00
-0.1650928414E+00-0.1547962196E+00-0.1531469057E+00-0.1555374168E+00-0.1690490945E+00-0.1912597804E+00
-0.2159034868E+00-0.2490122968E+00-0.2911892188E+00-0.3309109305E+00-0.3666530509E+00-0.3997130928E+00
-0.4247655517E+00-0.4400453475E+00-0.4400453475E+00-0.4247655517E+00-0.3997130928E+00-0.3666530509E+00
-0.3309109305E+00-0.2911892188E+00-0.2490122968E+00-0.2159034868E+00-0.1912597804E+00-0.1690490945E+00
-0.1555374168E+00-0.1531469057E+00-0.1547962196E+00-0.1650928414E+00-0.1835275197E+00-0.2024346653E+00
-0.2236178172E+00-0.2454249026E+00-0.2666135319E+00-0.2852503316E+00-0.2994986130E+00-0.3086777947E+00
-0.3252971598E+00-0.3213597416E+00-0.3129241431E+00-0.2987948483E+00-0.2814456808E+00-0.2617061747E+00
-0.2384282232E+00-0.2164275321E+00-0.1949534733E+00-0.1789398239E+00-0.1702840023E+00-0.1664739573E+00
-0.1731532675E+00-0.1912597804E+00-0.2146749310E+00-0.2511906572E+00-0.2994013399E+00-0.3473724561E+00
-0.4034705474E+00-0.4690812390E+00-0.5287432529E+00-0.5693793186E+00-0.5884882026E+00-0.5884882026E+00
-0.5693793186E+00-0.5287432529E+00-0.4690812390E+00-0.4034705474E+00-0.3473724561E+00-0.2994013399E+00
-0.2511906572E+00-0.2146749310E+00-0.1912597804E+00-0.1731532675E+00-0.1664739573E+00-0.1702840023E+00
-0.1789398239E+00-0.1949534733E+00-0.2164275321E+00-0.2384282232E+00-0.2617061747E+00-0.2814456808E+00
-0.2987948483E+00-0.3129241431E+00-0.3213597416E+00-0.3559218825E+00-0.3514152480E+00-0.3430300662E+00
-0.3270353507E+00-0.3072979429E+00-0.2844335925E+00-0.2591801867E+00-0.2365898110E+00-0.2137881353E+00
-0.1990993677E+00-0.1871127515E+00-0.1858002724E+00-0.1981899355E+00-0.2159034868E+00-0.2511906572E+00
-0.3019615090E+00-0.3593008000E+00-0.4382526030E+00-0.5355290942E+00-0.6059293567E+00-0.6331948083E+00
-0.6386106571E+00-0.6385345887E+00-0.6385345887E+00-0.6386106571E+00-0.6331948083E+00-0.6059293567E+00
-0.5355290942E+00-0.4382526030E+00-0.3593008000E+00-0.3019615090E+00-0.2511906572E+00-0.2159034868E+00
-0.1981899355E+00-0.1858002724E+00-0.1871127515E+00-0.1990993677E+00-0.2137881353E+00-0.2365898110E+00
-0.2591801867E+00-0.2844335925E+00-0.3072979429E+00-0.3270353507E+00-0.3430300662E+00-0.3514152480E+00
-0.3893215223E+00-0.3852116464E+00-0.3757202883E+00-0.3585921026E+00-0.3378909315E+00-0.3129693668E+00
-0.2869745347E+00-0.2614927303E+00-0.2362914201E+00-0.2197295020E+00-0.2077026106E+00-0.2106732993E+00
-0.2223741099E+00-0.2490122968E+00-0.2994013399E+00-0.3593008000E+00-0.4537842125E+00-0.5676008920E+00
-0.6258800759E+00-0.6294515036E+00-0.6545461366E+00-0.7241748511E+00-0.7873462178E+00-0.7873462178E+00
-0.7241748511E+00-0.6545461366E+00-0.6294515036E+00-0.6258800759E+00-0.5676008920E+00-0.4537842125E+00
-0.3593008000E+00-0.2994013399E+00-0.2490122968E+00-0.2223741099E+00-0.2106732993E+00-0.2077026106E+00
-0.2197295020E+00-0.2362914201E+00-0.2614927303E+00-0.2869745347E+00-0.3129693668E+00-0.3378909315E+00
-0.3585921026E+00-0.3757202883E+00-0.3852116464E+00-0.4295410770E+00-0.4260172396E+00-0.4142528349E+00
-0.3956047254E+00-0.3725712188E+00-0.3441439520E+00-0.3144928600E+00-0.2847879397E+00-0.2599904584E+00
-0.2413215709E+00-0.2317091907E+00-0.2357008432E+00-0.2502967868E+00-0.2911892188E+00-0.3473724561E+00
-0.4382526030E+00-0.5676008920E+00-0.6267802242E+00-0.6346232967E+00-0.7823678047E+00-0.1137744244E+01
-0.1552711339E+01-0.1824992308E+01-0.1824992308E+01-0.1552711339E+01-0.1137744244E+01-0.7823678047E+00
-0.6346232967E+00-0.6267802242E+00-0.5676008920E+00-0.4382526030E+00-0.3473724561E+00-0.2911892188E+00
-0.2502967868E+00-0.2357008432E+00-0.2317091907E+00-0.2413215709E+00-0.2599904584E+00-0.2847879397E+00
-0.3144928600E+00-0.3441439520E+00-0.3725712188E+00-0.3956047254E+00-0.4142528349E+00-0.4260172396E+00
-0.4676611037E+00-0.4641705464E+00-0.4502997810E+00-0.4302950132E+00-0.4040264366E+00-0.3738917798E+00
-0.3428477233E+00-0.3104372563E+00-0.2841934108E+00-0.2620631238E+00-0.2545462858E+00-0.2579301849E+00
-0.2810584232E+00-0.3309109305E+00-0.4034705474E+00-0.5355290942E+00-0.6258800759E+00-0.6346232967E+00
-0.8689358196E+00-0.1551088408E+01-0.2505658565E+01-0.3380040385E+01-0.3888420830E+01-0.3888420830E+01
-0.3380040385E+01-0.2505658565E+01-0.1551088408E+01-0.8689358196E+00-0.6346232967E+00-0.6258800759E+00
-0.5355290942E+00-0.4034705474E+00-0.3309109305E+00-0.2810584232E+00-0.2579301849E+00-0.2545462858E+00
-0.2620631238E+00-0.2841934108E+00-0.3104372563E+00-0.3428477233E+00-0.3738917798E+00-0.4040264366E+00
-0.4302950132E+00-0.4502997810E+00-0.4641705464E+00-0.5047212811E+00-0.5006303485E+00-0.4852441293E+00
-0.4646500242E+00-0.4352524454E+00-0.4015378238E+00-0.3667431653E+00-0.3317862421E+00-0.3031760496E+00
-0.2807502829E+00-0.2755184937E+00-0.2792464919E+00-0.3115221296E+00-0.3666530509E+00-0.4690812390E+00
-0.6059293567E+00-0.6294515036E+00-0.7823678047E+00-0.1551088408E+01-0.2918790458E+01-0.4439283789E+01
-0.5653579187E+01-0.6294823826E+01-0.6294823826E+01-0.5653579187E+01-0.4439283789E+01-0.2918790458E+01
-0.1551088408E+01-0.7823678047E+00-0.6294515036E+00-0.6059293567E+00-0.4690812390E+00-0.3666530509E+00
-0.3115221296E+00-0.2792464919E+00-0.2755184937E+00-0.2807502829E+00-0.3031760496E+00-0.3317862421E+00
-0.3667431653E+00-0.4015378238E+00-0.4352524454E+00-0.4646500242E+00-0.4852441293E+00-0.5006303485E+00
-0.5354937876E+00-0.5309926688E+00-0.5136680831E+00-0.4901169578E+00-0.4584439715E+00-0.4233983065E+00
-0.3865740420E+00-0.3515210639E+00-0.3207158699E+00-0.2972089655E+00-0.2910130216E+00-0.2973180194E+00
-0.3374601004E+00-0.3997130928E+00-0.5287432529E+00-0.6331948083E+00-0.6545461366E+00-0.1137744244E+01
-0.2505658565E+01-0.4439283789E+01-0.6293876519E+01-0.7551895029E+01-0.8110340390E+01-0.8110340390E+01
-0.7551895029E+01-0.6293876519E+01-0.4439283789E+01-0.2505658565E+01-0.1137744244E+01-0.6545461366E+00
-0.6331948083E+00-0.5287432529E+00-0.3997130928E+00-0.3374601004E+00-0.2973180194E+00-0.2910130216E+00
-0.2972089655E+00-0.3207158699E+00-0.3515210639E+00-0.3865740420E+00-0.4233983065E+00-0.4584439715E+00
-0.4901169578E+00-0.5136680831E+00-0.5309926688E+00-0.5573582785E+00-0.5530799159E+00-0.5357593984E+00
-0.5100716168E+00-0.4764590539E+00-0.4404792450E+00-0.4007641118E+00-0.3638797543E+00-0.3315514247E+00
-0.3089055734E+00-0.3027979466E+00-0.3118731512E+00-0.3544804213E+00-0.4247655517E+00-0.5693793186E+00
-0.6386106571E+00-0.7241748511E+00-0.1552711339E+01-0.3380040385E+01-0.5653579187E+01-0.7551895029E+01
-0.8573563718E+01-0.8907420789E+01-0.8907420789E+01-0.8573563718E+01-0.7551895029E+01-0.5653579187E+01
-0.3380040385E+01-0.1552711339E+01-0.7241748511E+00-0.6386106571E+00-0.5693793186E+00-0.4247655517E+00
-0.3544804213E+00-0.3118731512E+00-0.3027979466E+00-0.3089055734E+00-0.3315514247E+00-0.3638797543E+00
-0.4007641118E+00-0.4404792450E+00-0.4764590539E+00-0.5100716168E+00-0.5357593984E+00-0.5530799159E+00
-0.5688307626E+00-0.5638013189E+00-0.5464625919E+00-0.5205750557E+00-0.4854435753E+00-0.4484563934E+00
-0.4078421339E+00-0.3708763212E+00-0.3382495337E+00-0.3152527684E+00-0.3081795309E+00-0.3193390875E+00
-0.3637998455E+00-0.4400453475E+00-0.5884882026E+00-0.6385345887E+00-0.7873462178E+00-0.1824992308E+01
-0.3888420830E+01-0.6294823826E+01-0.8110340390E+01-0.8907420789E+01-0.9099274408E+01-0.9099274408E+01
-0.8907420789E+01-0.8110340390E+01-0.6294823826E+01-0.3888420830E+01-0.1824992308E+01-0.7873462178E+00
-0.6385345887E+00-0.5884882026E+00-0.4400453475E+00-0.3637998455E+00-0.3193390875E+00-0.3081795309E+00
-0.3152527684E+00-0.3382495337E+00-0.3708763212E+00-0.4078421339E+00-0.4484563934E+00-0.4854435753E+00
-0.5205750557E+00-0.5464625919E+00-0.5638013189E+00-0.5688307626E+00-0.5638013189E+00-0.5464625919E+00
-0.5205750557E+00-0.4854435753E+00-0.4484563934E+00-0.4078421339E+00-0.3708763212E+00-0.3382495337E+00
-0.3152527684E+00-0.3081795309E+00-0.3193390875E+00-0.3637998455E+00-0.4400453475E+00-0.5884882026E+00
-0.6385345887E+00-0.7873462178E+00-0.1824992308E+01-0.3888420830E+01-0.6294823826E+01-0.8110340390E+01
-0.8907420789E+01-0.9099274408E+01-0.9099274408E+01-0.8907420789E+01-0.8110340390E+01-0.6294823826E+01
-0.3888420830E+01-0.1824992308E+01-0.7873462178E+00-0.6385345887E+00-0.5884882026E+00-0.4400453475E+00
-0.3637998455E+00-0.3193390875E+00-0.3081795309E+00-0.3152527684E+00-0.3382495337E+00-0.3708763212E+00
-0.4078421339E+00-0.4484563934E+00-0.4854435753E+00-0.5205750557E+00-0.5464625919E+00-0.5638013189E+00
-0.5573582785E+00-0.5530799159E+00-0.5357593984E+00-0.5100716168E+00-0.4764590539E+00-0.4404792450E+00
-0.4007641118E+00-0.3638797543E+00-0.3315514247E+00-0.3089055734E+00-0.3027979466E+00-0.3118731512E+00
-0.3544804213E+00-0.4247655517E+00-0.5693793186E+00-0.6386106571E+00-0.7241748511E+00-0.1552711339E+01
-0.3380040385E+01-0.5653579187E+01-0.7551895029E+01-0.8573563718E+01-0.8907420789E+01-0.8907420789E+01
-0.8573563718E+01-0.7551895029E+01-0.5653579187E+01-0.3380040385E+01-0.1552711339E+01-0.7241748511E+00
-0.6386106571E+00-0.5693793186E+00-0.4247655517E+00-0.3544804213E+00-0.3118731512E+00-0.3027979466E+00
-0.3089055734E+00-0.3315514247E+00-0.3638797543E+00-0.4007641118E+00-0.4404792450E+00-0.4764590539E+00
-0.5100716168E+00-0.5357593984E+00-0.5530799159E+00-0.5354937876E+00-0.5309926688E+00-0.5136680831E+00
-0.4901169578E+00-0.4584439715E+00-0.4233983065E+00-0.3865740420E+00-0.3515210639E+00-0.3207158699E+00
-0.2972089655E+00-0.2910130216E+00-0.2973180194E+00-0.3374601004E+00-0.3997130928E+00-0.5287432529E+00
-0.6331948083E+00-0.6545461366E+00-0.1137744244E+01-0.2505658565E+01-0.4439283789E+01-0.6293876519E+01
-0.7551895029E+01-0.8110340390E+01-0.8110340390E+01-0.7551895029E+01-0.6293876519E+01-0.4439283789E+01
-0.2505658565E+01-0.1137744244E+01-0.6545461366E+00-0.6331948083E+00-0.5287432529E+00-0.3997130928E+00
-0.3374601004E+00-0.2973180194E+00-0.2910130216E+00-0.2972089655E+00-0.3207158699E+00-0.3515210639E+00
-0.3865740420E+00-0.4233983065E+00-0.4584439715E+00-0.4901169578E+00-0.5136680831E+00-0.5309926688E+00
-0.5047212811E+00-0.5006303485E+00-0.4852441293E+00-0.4646500242E+00-0.4352524454E+00-0.4015378238E+00
-0.3667431653E+00-0.3317862421E+00-0.3031760496E+00-0.2807502829E+00-0.2755184937E+00-0.2792464919E+00
-0.3115221296E+00-0.3666530509E+00-0.4690812390E+00-0.6059293567E+00-0.6294515036E+00-0.7823678047E+00
-0.1551088408E+01-0.2918790458E+01-0.4439283789E+01-0.5653579187E+01-0.6294823826E+01-0.6294823826E+01
-0.5653579187E+01-0.4439283789E+01-0.2918790458E+01-0.1551088408E+01-0.7823678047E+00-0.6294515036E+00
-0.6059293567E+00-0.4690812390E+00-0.3666530509E+00-0.3115221296E+00-0.2792464919E+00-0.2755184937E+00
-0.2807502829E+00-0.3031760496E+00-0.3317862421E+00-0.3667431653E+00-0.4015378238E+00-0.4352524454E+00
-0.4646500242E+00-0.4852441293E+00-0.5006303485E+00-0.4676611037E+00-0.4641705464E+00-0.4502997810E+00
-0.4302950132E+00-0.4040264366E+00-0.3738917798E+00-0.3428477233E+00-0.3104372563E+00-0.2841934108E+00
-0.2620631238E+00-0.2545462858E+00-0.2579301849E+00-0.2810584232E+00-0.3309109305E+00-0.4034705474E+00
-0.5355290942E+00-0.6258800759E+00-0.6346232967E+00-0.8689358196E+00-0.1551088408E+01-0.2505658565E+01
-0.3380040385E+01-0.3888420830E+01-0.3888420830E+01-0.3380040385E+01-0.2505658565E+01-0.1551088408E+01
-0.8689358196E+00-0.6346232967E+00-0.6258800759E+00-0.5355290942E+00-0.4034705474E+00-0.3309109305E+00
-0.2810584232E+00-0.2579301849E+00-0.2545462858E+00-0.2620631238E+00-0.2841934108E+00-0.3104372563E+00
-0.3428477233E+00-0.3738917798E+00-0.4040264366E+00-0.4302950132E+00-0.4502997810E+00-0.4641705464E+00
-0.4295410770E+00-0.4260172396E+00-0.4142528349E+00-0.3956047254E+00-0.3725712188E+00-0.3441439520E+00
-0.3144928600E+00-0.2847879397E+00-0.2599904584E+00-0.2413215709E+00-0.2317091907E+00-0.2357008432E+00
-0.2502967868E+00-0.2911892188E+00-0.3473724561E+00-0.4382526030E+00-0.5676008920E+00-0.6267802242E+00
-0.6346232967E+00-0.7823678047E+00-0.1137744244E+01-0.1552711339E+01-0.1824992308E+01-0.1824992308E+01
-0.1552711339E+01-0.1137744244E+01-0.7823678047E+00-0.6346232967E+00-0.6267802242E+00-0.5676008920E+00
-0.4382526030E+00-0.3473724561E+00-0.2911892188E+00-0.2502967868E+00-0.2357008432E+00-0.2317091907E+00
-0.2413215709E+00-0.2599904584E+00-0.2847879397E+00-0.3144928600E+00-0.3441439520E+00-0.3725712188E+00
-0.3956047254E+00-0.4142528349E+00-0.4260172396E+00-0.3893215223E+00-0.3852116464E+00-0.3757202883E+00
-0.3585921026E+00-0.3378909315E+00-0.3129693668E+00-0.2869745347E+00-0.2614927303E+00-0.2362914201E+00
-0.2197295020E+00-0.2077026106E+00-0.2106732993E+00-0.2223741099E+00-0.2490122968E+00-0.2994013399E+00
-0.3593008000E+00-0.4537842125E+00-0.5676008920E+00-0.6258800759E+00-0.6294515036E+00-0.6545461366E+00
-0.7241748511E+00-0.7873462178E+00-0.7873462178E+00-0.7241748511E+00-0.6545461366E+00-0.6294515036E+00
-0.6258800759E+00-0.5676008920E+00-0.4537842125E+00-0.3593008000E+00-0.2994013399E+00-0.2490122968E+00
-0.2223741099E+00-0.2106732993E+00-0.2077026106E+00-0.2197295020E+00-0.2362914201E+00-0.2614927303E+00
-0.2869745347E+00-0.3129693668E+00-0.3378909315E+00-0.3585921026E+00-0.3757202883E+00-0.3852116464E+00
-0.3559218825E+00-0.3514152480E+00-0.3430300662E+00-0.3270353507E+00-0.3072979429E+00-0.2844335925E+00
-0.2591801867E+00-0.2365898110E+00-0.2137881353E+00-0.1990993677E+00-0.1871127515E+00-0.1858002724E+00
-0.1981899355E+00-0.2159034868E+00-0.2511906572E+00-0.3019615090E+00-0.3593008000E+00-0.4382526030E+00
-0.5355290942E+00-0.6059293567E+00-0.6331948083E+00-0.6386106571E+00-0.6385345887E+00-0.6385345887E+00
-0.6386106571E+00-0.6331948083E+00-0.6059293567E+00-0.5355290942E+00-0.4382526030E+00-0.3593008000E+00
-0.3019615090E+00-0.2511906572E+00-0.2159034868E+00-0.1981899355E+00-0.1858002724E+00-0.1871127515E+00
-0.1990993677E+00-0.2137881353E+00-0.2365898110E+00-0.2591801867E+00-0.2844335925E+00-0.3072979429E+00
-0.3270353507E+00-0.3430300662E+00-0.3514152480E+00-0.3252971598E+00-0.3213597416E+00-0.3129241431E+00
-0.2987948483E+00-0.2814456808E+00-0.2617061747E+00-0.2384282232E+00-0.2164275321E+00-0.1949534733E+00
-0.1789398239E+00-0.1702840023E+00-0.1664739573E+00-0.1731532675E+00-0.1912597804E+00-0.2146749310E+00
-0.2511906572E+00-0.2994013399E+00-0.3473724561E+00-0.4034705474E+00-0.4690812390E+00-0.5287432529E+00
-0.5693793186E+00-0.5884882026E+00-0.5884882026E+00-0.5693793186E+00-0.5287432529E+00-0.4690812390E+00
-0.4034705474E+00-0.3473724561E+00-0.2994013399E+00-0.2511906572E+00-0.2146749310E+00-0.1912597804E+00
-0.1731532675E+00-0.1664739573E+00-0.1702840023E+00-0.1789398239E+00-0.1949534733E+00-0.2164275321E+00
-0.2384282232E+00-0.2617061747E+00-0.2814456808E+00-0.2987948483E+00-0.3129241431E+00-0.3213597416E+00
-0.3113205157E+00-0.3086777947E+00-0.2994986130E+00-0.2852503316E+00-0.2666135319E+00-0.2454249026E+00
-0.2236178172E+00-0.2024346653E+00-0.1835275197E+00-0.1650928414E+00-0.1547962196E+00-0.1531469057E+00
-0.1555374168E+00-0.1690490945E+00-0.1912597804E+00-0.2159034868E+00-0.2490122968E+00-0.2911892188E+00
-0.3309109305E+00-0.3666530509E+00-0.3997130928E+00-0.4247655517E+00-0.4400453475E+00-0.4400453475E+00
-0.4247655517E+00-0.3997130928E+00-0.3666530509E+00-0.3309109305E+00-0.2911892188E+00-0.2490122968E+00
-0.2159034868E+00-0.1912597804E+00-0.1690490945E+00-0.1555374168E+00-0.1531469057E+00-0.1547962196E+00
-0.1650928414E+00-0.1835275197E+00-0.2024346653E+00-0.2236178172E+00-0.2454249026E+00-0.2666135319E+00
-0.2852503316E+00-0.2994986130E+00-0.3086777947E+00-0.3098455028E+00-0.3074153533E+00-0.2976604179E+00
-0.2839121076E+00-0.2660710377E+00-0.2442180030E+00-0.2201121788E+00-0.1947105953E+00-0.1753406782E+00
-0.1602733593E+00-0.1477401044E+00-0.1425025134E+00-0.1466485758E+00-0.1555374168E+00-0.1731532675E+00
-0.1981899355E+00-0.2223741099E+00-0.2502967868E+00-0.2810584232E+00-0.3115221296E+00-0.3374601004E+00
-0.3544804213E+00-0.3637998455E+00-0.3637998455E+00-0.3544804213E+00-0.3374601004E+00-0.3115221296E+00
-0.2810584232E+00-0.2502967868E+00-0.2223741099E+00-0.1981899355E+00-0.1731532675E+00-0.1555374168E+00
-0.1466485758E+00-0.1425025134E+00-0.1477401044E+00-0.1602733593E+00-0.1753406782E+00-0.1947105953E+00
-0.2201121788E+00-0.2442180030E+00-0.2660710377E+00-0.2839121076E+00-0.2976604179E+00-0.3074153533E+00
-0.3401425112E+00-0.3357688641E+00-0.3228143928E+00-0.3029100989E+00-0.2780847157E+00-0.2529315106E+00
-0.2284097472E+00-0.2037351334E+00-0.1789917796E+00-0.1596243904E+00-0.1484112651E+00-0.1402594442E+00
-0.1425025134E+00-0.1531469057E+00-0.1664739573E+00-0.1858002724E+00-0.2106732993E+00-0.2357008432E+00
-0.2579301849E+00-0.2792464919E+00-0.2973180194E+00-0.3118731512E+00-0.3193390875E+00-0.3193390875E+00
-0.3118731512E+00-0.2973180194E+00-0.2792464919E+00-0.2579301849E+00-0.2357008432E+00-0.2106732993E+00
-0.1858002724E+00-0.1664739573E+00-0.1531469057E+00-0.1425025134E+00-0.1402594442E+00-0.1484112651E+00
-0.1596243904E+00-0.1789917796E+00-0.2037351334E+00-0.2284097472E+00-0.2529315106E+00-0.2780847157E+00
-0.3029100989E+00-0.3228143928E+00-0.3357688641E+00-0.3953177487E+00-0.3892311405E+00-0.3747747698E+00
-0.3519581377E+00-0.3211332863E+00-0.2862776459E+00-0.2488379973E+00-0.2181990439E+00-0.1936566735E+00
-0.1698343187E+00-0.1543367733E+00-0.1484112651E+00-0.1477401044E+00-0.1547962196E+00-0.1702840023E+00
-0.1871127515E+00-0.2077026106E+00-0.2317091907E+00-0.2545462858E+00-0.2755184937E+00-0.2910130216E+00
-0.3027979466E+00-0.3081795309E+00-0.3081795309E+00-0.3027979466E+00-0.2910130216E+00-0.2755184937E+00
-0.2545462858E+00-0.2317091907E+00-0.2077026106E+00-0.1871127515E+00-0.1702840023E+00-0.1547962196E+00
-0.1477401044E+00-0.1484112651E+00-0.1543367733E+00-0.1698343187E+00-0.1936566735E+00-0.2181990439E+00
-0.2488379973E+00-0.2862776459E+00-0.3211332863E+00-0.3519581377E+00-0.3747747698E+00-0.3892311405E+00
-0.5135859573E+00-0.5029809532E+00-0.4742785755E+00-0.4316703444E+00-0.3840240120E+00-0.3396948078E+00
-0.2955686379E+00-0.2503717587E+00-0.2149214918E+00-0.1907428613E+00-0.1698343187E+00-0.1596243904E+00
-0.1602733593E+00-0.1650928414E+00-0.1789398239E+00-0.1990993677E+00-0.2197295020E+00-0.2413215709E+00
-0.2620631238E+00-0.2807502829E+00-0.2972089655E+00-0.3089055734E+00-0.3152527684E+00-0.3152527684E+00
-0.3089055734E+00-0.2972089655E+00-0.2807502829E+00-0.2620631238E+00-0.2413215709E+00-0.2197295020E+00
-0.1990993677E+00-0.1789398239E+00-0.1650928414E+00-0.1602733593E+00-0.1596243904E+00-0.1698343187E+00
-0.1907428613E+00-0.2149214918E+00-0.2503717587E+00-0.2955686379E+00-0.3396948078E+00-0.3840240120E+00
-0.4316703444E+00-0.4742785755E+00-0.5029809532E+00-0.6363465955E+00-0.6325480924E+00-0.6156041398E+00
-0.5750728932E+00-0.5058797292E+00-0.4222245653E+00-0.3542745862E+00-0.3015011295E+00-0.2512691484E+00
-0.2149214918E+00-0.1936566735E+00-0.1789917796E+00-0.1753406782E+00-0.1835275197E+00-0.1949534733E+00