 DIM-GROUP
 3  1
 PRIMVEC
 4.0178100000E+00   0.0000000000E+00   0.0000000000E+00
 5.1184390385E-18   4.0178100000E+00   0.0000000000E+00
 6.3237877933E-18   6.3237877933E-18   4.9639700000E+00
 PRIMCOORD
            4 1
       82    4.0934969137E-18    2.0089050000E+00    1.2043584014E+00
        8    0.0000000000E+00    0.0000000000E+00    0.0000000000E+00
        8    2.0089050000E+00    2.0089050000E+00    0.0000000000E+00
       82    2.0089050000E+00    4.7895103989E-18    3.7596115986E+00
 ATOMS
       82    4.0934969137E-18    2.0089050000E+00    1.2043584014E+00
        8    0.0000000000E+00    0.0000000000E+00    0.0000000000E+00
        8    2.0089050000E+00    2.0089050000E+00    0.0000000000E+00
       82    2.0089050000E+00    4.7895103989E-18    3.7596115986E+00
 BEGIN_BLOCK_DATAGRID3D
 datagrids
 DATAGRID_3D_DENSITY
           45          45          54
 0.0 0.0 0.0 
 4.0178100000E+00   0.0000000000E+00   0.0000000000E+00
 5.1184390385E-18   4.0178100000E+00   0.0000000000E+00
 6.3237877933E-18   6.3237877933E-18   4.9639700000E+00
 0.3200485232E+00 0.4901598780E+00 0.7976162825E+00 0.9188961166E+00 0.7914513329E+00 0.5667093312E+00
 0.3736776100E+00 0.2442355800E+00 0.1631739012E+00 0.1114393814E+00 0.7758702554E-01 0.5550784969E-01
 0.4114676194E-01 0.3160174542E-01 0.2512284504E-01 0.2076347764E-01 0.1788517426E-01 0.1597795579E-01
 0.1470706788E-01 0.1389528346E-01 0.1341777971E-01 0.1315781562E-01 0.1303968590E-01 0.1303968590E-01
 0.1315781562E-01 0.1341777971E-01 0.1389528346E-01 0.1470706788E-01 0.1597795579E-01 0.1788517426E-01
 0.2076347764E-01 0.2512284504E-01 0.3160174542E-01 0.4114676194E-01 0.5550784969E-01 0.7758702554E-01
 0.1114393814E+00 0.1631739012E+00 0.2442355800E+00 0.3736776100E+00 0.5667093312E+00 0.7914513329E+00
 0.9188961166E+00 0.7976162825E+00 0.4901598780E+00 0.4901598780E+00 0.6222362766E+00 0.8506428888E+00
 0.9120067786E+00 0.7651004043E+00 0.5446274716E+00 0.3602827466E+00 0.2368252062E+00 0.1589725443E+00
 0.1089203958E+00 0.7603179043E-01 0.5453214825E-01 0.4051341962E-01 0.3117486081E-01 0.2483330936E-01
 0.2057223023E-01 0.1776508337E-01 0.1591136409E-01 0.1468354743E-01 0.1390616554E-01 0.1345329727E-01
 0.1320832321E-01 0.1309708375E-01 0.1309708375E-01 0.1320832321E-01 0.1345329727E-01 0.1390616554E-01
 0.1468354743E-01 0.1591136409E-01 0.1776508337E-01 0.2057223023E-01 0.2483330936E-01 0.3117486081E-01
 0.4051341962E-01 0.5453214825E-01 0.7603179043E-01 0.1089203958E+00 0.1589725443E+00 0.2368252062E+00
 0.3602827466E+00 0.5446274716E+00 0.7651004043E+00 0.9120067786E+00 0.8506428888E+00 0.6222362766E+00
 0.7976162825E+00 0.8506428888E+00 0.9173823850E+00 0.8622331932E+00 0.6858286836E+00 0.4837807297E+00
 0.3238404849E+00 0.2164537452E+00 0.1472426470E+00 0.1018106536E+00 0.7161549470E-01 0.5174645777E-01
 0.3869636091E-01 0.2994904014E-01 0.2400544790E-01 0.2002981621E-01 0.1742871182E-01 0.1572944388E-01
 0.1462568199E-01 0.1394757374E-01 0.1356686232E-01 0.1336726918E-01 0.1327772571E-01 0.1327772571E-01
 0.1336726918E-01 0.1356686232E-01 0.1394757374E-01 0.1462568199E-01 0.1572944388E-01 0.1742871182E-01
 0.2002981621E-01 0.2400544790E-01 0.2994904014E-01 0.3869636091E-01 0.5174645777E-01 0.7161549470E-01
 0.1018106536E+00 0.1472426470E+00 0.2164537452E+00 0.3238404849E+00 0.4837807297E+00 0.6858286836E+00
 0.8622331932E+00 0.9173823850E+00 0.8506428888E+00 0.9188961166E+00 0.9120067786E+00 0.8622331932E+00
 0.7373511895E+00 0.5644326469E+00 0.3994425385E+00 0.2737375509E+00 0.1877414131E+00 0.1302131871E+00
 0.9129090165E-01 0.6501204845E-01 0.4753944024E-01 0.3592730521E-01 0.2807723786E-01 0.2275015862E-01
 0.1922004233E-01 0.1694217219E-01 0.1548756868E-01 0.1458169932E-01 0.1406294452E-01 0.1380062705E-01
 0.1367893991E-01 0.1362853638E-01 0.1362853638E-01 0.1367893991E-01 0.1380062705E-01 0.1406294452E-01
 0.1458169932E-01 0.1548756868E-01 0.1694217219E-01 0.1922004233E-01 0.2275015862E-01 0.2807723786E-01
 0.3592730521E-01 0.4753944024E-01 0.6501204845E-01 0.9129090165E-01 0.1302131871E+00 0.1877414131E+00
 0.2737375509E+00 0.3994425385E+00 0.5644326469E+00 0.7373511895E+00 0.8622331932E+00 0.9120067786E+00
 0.7914513329E+00 0.7651004043E+00 0.6858286836E+00 0.5644326469E+00 0.4298510204E+00 0.3111020258E+00
 0.2205093751E+00 0.1559331877E+00 0.1105935936E+00 0.7889698816E-01 0.5712954521E-01 0.4244866155E-01
 0.3253751806E-01 0.2578237843E-01 0.2122816399E-01 0.1826497890E-01 0.1640747837E-01 0.1528124657E-01
 0.1464646340E-01 0.1434771025E-01 0.1425135287E-01 0.1424230089E-01 0.1425030895E-01 0.1425030895E-01
 0.1424230089E-01 0.1425135287E-01 0.1434771025E-01 0.1464646340E-01 0.1528124657E-01 0.1640747837E-01
 0.1826497890E-01 0.2122816399E-01 0.2578237843E-01 0.3253751806E-01 0.4244866155E-01 0.5712954521E-01
 0.7889698816E-01 0.1105935936E+00 0.1559331877E+00 0.2205093751E+00 0.3111020258E+00 0.4298510204E+00
 0.5644326469E+00 0.6858286836E+00 0.7651004043E+00 0.5667093312E+00 0.5446274716E+00 0.4837807297E+00
 0.3994425385E+00 0.3111020258E+00 0.2333574256E+00 0.1716813060E+00 0.1251295070E+00 0.9081084606E-01
 0.6612940373E-01 0.4888333247E-01 0.3703314462E-01 0.2889200401E-01 0.2332546624E-01 0.1963674033E-01
 0.1732174276E-01 0.1596143525E-01 0.1524029792E-01 0.1494796208E-01 0.1492873166E-01 0.1504446557E-01
 0.1518103058E-01 0.1526533525E-01 0.1526533525E-01 0.1518103058E-01 0.1504446557E-01 0.1492873166E-01
 0.1494796208E-01 0.1524029792E-01 0.1596143525E-01 0.1732174276E-01 0.1963674033E-01 0.2332546624E-01
 0.2889200401E-01 0.3703314462E-01 0.4888333247E-01 0.6612940373E-01 0.9081084606E-01 0.1251295070E+00
 0.1716813060E+00 0.2333574256E+00 0.3111020258E+00 0.3994425385E+00 0.4837807297E+00 0.5446274716E+00
 0.3736776100E+00 0.3602827466E+00 0.3238404849E+00 0.2737375509E+00 0.2205093751E+00 0.1716813060E+00
 0.1305925327E+00 0.9778023271E-01 0.7265293027E-01 0.5417914264E-01 0.4101704608E-01 0.3177208125E-01
 0.2533439645E-01 0.2097453583E-01 0.1819267740E-01 0.1657277234E-01 0.1576600393E-01 0.1551437890E-01
 0.1562824598E-01 0.1594489815E-01 0.1631883342E-01 0.1663432624E-01 0.1681248597E-01 0.1681248597E-01
 0.1663432624E-01 0.1631883342E-01 0.1594489815E-01 0.1562824598E-01 0.1551437890E-01 0.1576600393E-01
 0.1657277234E-01 0.1819267740E-01 0.2097453583E-01 0.2533439645E-01 0.3177208125E-01 0.4101704608E-01
 0.5417914264E-01 0.7265293027E-01 0.9778023271E-01 0.1305925327E+00 0.1716813060E+00 0.2205093751E+00
 0.2737375509E+00 0.3238404849E+00 0.3602827466E+00 0.2442355800E+00 0.2368252062E+00 0.2164537452E+00
 0.1877414131E+00 0.1559331877E+00 0.1251295070E+00 0.9778023271E-01 0.7504450781E-01 0.5718773270E-01
 0.4379029345E-01 0.3402248764E-01 0.2702585969E-01 0.2215746108E-01 0.1897278731E-01 0.1710072569E-01
 0.1620037798E-01 0.1599469387E-01 0.1627666599E-01 0.1686809329E-01 0.1759323313E-01 0.1829201241E-01
 0.1883701490E-01 0.1913572162E-01 0.1913572162E-01 0.1883701490E-01 0.1829201241E-01 0.1759323313E-01
 0.1686809329E-01 0.1627666599E-01 0.1599469387E-01 0.1620037798E-01 0.1710072569E-01 0.1897278731E-01
 0.2215746108E-01 0.2702585969E-01 0.3402248764E-01 0.4379029345E-01 0.5718773270E-01 0.7504450781E-01
 0.9778023271E-01 0.1251295070E+00 0.1559331877E+00 0.1877414131E+00 0.2164537452E+00 0.2368252062E+00
 0.1631739012E+00 0.1589725443E+00 0.1472426470E+00 0.1302131871E+00 0.1105935936E+00 0.9081084606E-01
 0.7265293027E-01 0.5718773270E-01 0.4478436441E-01 0.3525817786E-01 0.2815835616E-01 0.2304567532E-01
 0.1959093944E-01 0.1751518031E-01 0.1653369720E-01 0.1638107662E-01 0.1684857958E-01 0.1776476168E-01
 0.1894923970E-01 0.2020358924E-01 0.2133893022E-01 0.2219795544E-01 0.2266163060E-01 0.2266163060E-01
 0.2219795544E-01 0.2133893022E-01 0.2020358924E-01 0.1894923970E-01 0.1776476168E-01 0.1684857958E-01
 0.1638107662E-01 0.1653369720E-01 0.1751518031E-01 0.1959093944E-01 0.2304567532E-01 0.2815835616E-01
 0.3525817786E-01 0.4478436441E-01 0.5718773270E-01 0.7265293027E-01 0.9081084606E-01 0.1105935936E+00
 0.1302131871E+00 0.1472426470E+00 0.1589725443E+00 0.1114393814E+00 0.1089203958E+00 0.1018106536E+00
 0.9129090165E-01 0.7889698816E-01 0.6612940373E-01 0.5417914264E-01 0.4379029345E-01 0.3525817786E-01
 0.2855674344E-01 0.2352470810E-01 0.1999235763E-01 0.1779707403E-01 0.1675303851E-01 0.1665692611E-01
 0.1732424490E-01 0.1859845874E-01 0.2031644523E-01 0.2227565262E-01 0.2424065047E-01 0.2597494086E-01
 0.2726911351E-01 0.2796151730E-01 0.2796151730E-01 0.2726911351E-01 0.2597494086E-01 0.2424065047E-01
 0.2227565262E-01 0.2031644523E-01 0.1859845874E-01 0.1732424490E-01 0.1665692611E-01 0.1675303851E-01
 0.1779707403E-01 0.1999235763E-01 0.2352470810E-01 0.2855674344E-01 0.3525817786E-01 0.4379029345E-01
 0.5417914264E-01 0.6612940373E-01 0.7889698816E-01 0.9129090165E-01 0.1018106536E+00 0.1089203958E+00
 0.7758702554E-01 0.7603179043E-01 0.7161549470E-01 0.6501204845E-01 0.5712954521E-01 0.4888333247E-01
 0.4101704608E-01 0.3402248764E-01 0.2815835616E-01 0.2352470810E-01 0.2013424707E-01 0.1794684411E-01
 0.1688035786E-01 0.1682647298E-01 0.1767246864E-01 0.1930616944E-01 0.2159428508E-01 0.2435413173E-01
 0.2734440383E-01 0.3027776073E-01 0.3284609736E-01 0.3475645845E-01 0.3577620116E-01 0.3577620116E-01
 0.3475645845E-01 0.3284609736E-01 0.3027776073E-01 0.2734440383E-01 0.2435413173E-01 0.2159428508E-01
 0.1930616944E-01 0.1767246864E-01 0.1682647298E-01 0.1688035786E-01 0.1794684411E-01 0.2013424707E-01
 0.2352470810E-01 0.2815835616E-01 0.3402248764E-01 0.4101704608E-01 0.4888333247E-01 0.5712954521E-01
 0.6501204845E-01 0.7161549470E-01 0.7603179043E-01 0.5550784969E-01 0.5453214825E-01 0.5174645777E-01
 0.4753944024E-01 0.4244866155E-01 0.3703314462E-01 0.3177208125E-01 0.2702585969E-01 0.2304567532E-01
 0.1999235763E-01 0.1794684411E-01 0.1692620299E-01 0.1691440434E-01 0.1788924599E-01 0.1982139261E-01
 0.2264644473E-01 0.2623559495E-01 0.3038408231E-01 0.3480949308E-01 0.3914918226E-01 0.4297316600E-01
 0.4583777406E-01 0.4737428838E-01 0.4737428838E-01 0.4583777406E-01 0.4297316600E-01 0.3914918226E-01
 0.3480949308E-01 0.3038408231E-01 0.2623559495E-01 0.2264644473E-01 0.1982139261E-01 0.1788924599E-01
 0.1691440434E-01 0.1692620299E-01 0.1794684411E-01 0.1999235763E-01 0.2304567532E-01 0.2702585969E-01
 0.3177208125E-01 0.3703314462E-01 0.4244866155E-01 0.4753944024E-01 0.5174645777E-01 0.5453214825E-01
 0.4114676194E-01 0.4051341962E-01 0.3869636091E-01 0.3592730521E-01 0.3253751806E-01 0.2889200401E-01
 0.2533439645E-01 0.2215746108E-01 0.1959093944E-01 0.1779707403E-01 0.1688035786E-01 0.1691440434E-01
 0.1796657291E-01 0.2009827294E-01 0.2334198625E-01 0.2767523452E-01 0.3300250598E-01 0.3913190916E-01
 0.4573422873E-01 0.5230569038E-01 0.5818229148E-01 0.6263795322E-01 0.6504695365E-01 0.6504695365E-01
 0.6263795322E-01 0.5818229148E-01 0.5230569038E-01 0.4573422873E-01 0.3913190916E-01 0.3300250598E-01
 0.2767523452E-01 0.2334198625E-01 0.2009827294E-01 0.1796657291E-01 0.1691440434E-01 0.1688035786E-01
 0.1779707403E-01 0.1959093944E-01 0.2215746108E-01 0.2533439645E-01 0.2889200401E-01 0.3253751806E-01
 0.3592730521E-01 0.3869636091E-01 0.4051341962E-01 0.3160174542E-01 0.3117486081E-01 0.2994904014E-01
 0.2807723786E-01 0.2578237843E-01 0.2332546624E-01 0.2097453583E-01 0.1897278731E-01 0.1751518031E-01
 0.1675303851E-01 0.1682647298E-01 0.1788924599E-01 0.2009827294E-01 0.2358650452E-01 0.2845614098E-01
 0.3478595715E-01 0.4259725402E-01 0.5174966467E-01 0.6181575733E-01 0.7201682663E-01 0.8127174560E-01
 0.8836856916E-01 0.9223504359E-01 0.9223504359E-01 0.8836856916E-01 0.8127174560E-01 0.7201682663E-01
 0.6181575733E-01 0.5174966467E-01 0.4259725402E-01 0.3478595715E-01 0.2845614098E-01 0.2358650452E-01
 0.2009827294E-01 0.1788924599E-01 0.1682647298E-01 0.1675303851E-01 0.1751518031E-01 0.1897278731E-01
 0.2097453583E-01 0.2332546624E-01 0.2578237843E-01 0.2807723786E-01 0.2994904014E-01 0.3117486081E-01
 0.2512284504E-01 0.2483330936E-01 0.2400544790E-01 0.2275015862E-01 0.2122816399E-01 0.1963674033E-01
 0.1819267740E-01 0.1710072569E-01 0.1653369720E-01 0.1665692611E-01 0.1767246864E-01 0.1982139261E-01
 0.2334198625E-01 0.2845614098E-01 0.3541794550E-01 0.4453251457E-01 0.5602950129E-01 0.6982027634E-01
 0.8529158822E-01 0.1012413066E+00 0.1159511560E+00 0.1274039732E+00 0.1337139269E+00 0.1337139269E+00
 0.1274039732E+00 0.1159511560E+00 0.1012413066E+00 0.8529158822E-01 0.6982027634E-01 0.5602950129E-01
 0.4453251457E-01 0.3541794550E-01 0.2845614098E-01 0.2334198625E-01 0.1982139261E-01 0.1767246864E-01
 0.1665692611E-01 0.1653369720E-01 0.1710072569E-01 0.1819267740E-01 0.1963674033E-01 0.2122816399E-01
 0.2275015862E-01 0.2400544790E-01 0.2483330936E-01 0.2076347764E-01 0.2057223023E-01 0.2002981621E-01
 0.1922004233E-01 0.1826497890E-01 0.1732174276E-01 0.1657277234E-01 0.1620037798E-01 0.1638107662E-01
 0.1732424490E-01 0.1930616944E-01 0.2264644473E-01 0.2767523452E-01 0.3478595715E-01 0.4453251457E-01
 0.5758199051E-01 0.7443583844E-01 0.9507872450E-01 0.1187553601E+00 0.1438428227E+00 0.1677145891E+00
 0.1868454036E+00 0.1975982376E+00 0.1975982376E+00 0.1868454036E+00 0.1677145891E+00 0.1438428227E+00
 0.1187553601E+00 0.9507872450E-01 0.7443583844E-01 0.5758199051E-01 0.4453251457E-01 0.3478595715E-01
 0.2767523452E-01 0.2264644473E-01 0.1930616944E-01 0.1732424490E-01 0.1638107662E-01 0.1620037798E-01
 0.1657277234E-01 0.1732174276E-01 0.1826497890E-01 0.1922004233E-01 0.2002981621E-01 0.2057223023E-01
 0.1788517426E-01 0.1776508337E-01 0.1742871182E-01 0.1694217219E-01 0.1640747837E-01 0.1596143525E-01
 0.1576600393E-01 0.1599469387E-01 0.1684857958E-01 0.1859845874E-01 0.2159428508E-01 0.2623559495E-01
 0.3300250598E-01 0.4259725402E-01 0.5602950129E-01 0.7443583844E-01 0.9870533405E-01 0.1291947565E+00
 0.1655099939E+00 0.2058880411E+00 0.2461986087E+00 0.2797358046E+00 0.2990109825E+00 0.2990109825E+00
 0.2797358046E+00 0.2461986087E+00 0.2058880411E+00 0.1655099939E+00 0.1291947565E+00 0.9870533405E-01
 0.7443583844E-01 0.5602950129E-01 0.4259725402E-01 0.3300250598E-01 0.2623559495E-01 0.2159428508E-01
 0.1859845874E-01 0.1684857958E-01 0.1599469387E-01 0.1576600393E-01 0.1596143525E-01 0.1640747837E-01
 0.1694217219E-01 0.1742871182E-01 0.1776508337E-01 0.1597795579E-01 0.1591136409E-01 0.1572944388E-01
 0.1548756868E-01 0.1528124657E-01 0.1524029792E-01 0.1551437890E-01 0.1627666599E-01 0.1776476168E-01
 0.2031644523E-01 0.2435413173E-01 0.3038408231E-01 0.3913190916E-01 0.5174966467E-01 0.6982027634E-01
 0.9507872450E-01 0.1291947565E+00 0.1738147903E+00 0.2300423051E+00 0.2962707805E+00 0.3652823867E+00
 0.4239675755E+00 0.4578984131E+00 0.4578984131E+00 0.4239675755E+00 0.3652823867E+00 0.2962707805E+00
 0.2300423051E+00 0.1738147903E+00 0.1291947565E+00 0.9507872450E-01 0.6982027634E-01 0.5174966467E-01
 0.3913190916E-01 0.3038408231E-01 0.2435413173E-01 0.2031644523E-01 0.1776476168E-01 0.1627666599E-01
 0.1551437890E-01 0.1524029792E-01 0.1528124657E-01 0.1548756868E-01 0.1572944388E-01 0.1591136409E-01
 0.1470706788E-01 0.1468354743E-01 0.1462568199E-01 0.1458169932E-01 0.1464646340E-01 0.1494796208E-01
 0.1562824598E-01 0.1686809329E-01 0.1894923970E-01 0.2227565262E-01 0.2734440383E-01 0.3480949308E-01
 0.4573422873E-01 0.6181575733E-01 0.8529158822E-01 0.1187553601E+00 0.1655099939E+00 0.2300423051E+00
 0.3162823855E+00 0.4219784194E+00 0.5326208326E+00 0.6238419607E+00 0.6742565846E+00 0.6742565846E+00
 0.6238419607E+00 0.5326208326E+00 0.4219784194E+00 0.3162823855E+00 0.2300423051E+00 0.1655099939E+00
 0.1187553601E+00 0.8529158822E-01 0.6181575733E-01 0.4573422873E-01 0.3480949308E-01 0.2734440383E-01
 0.2227565262E-01 0.1894923970E-01 0.1686809329E-01 0.1562824598E-01 0.1494796208E-01 0.1464646340E-01
 0.1458169932E-01 0.1462568199E-01 0.1468354743E-01 0.1389528346E-01 0.1390616554E-01 0.1394757374E-01
 0.1406294452E-01 0.1434771025E-01 0.1492873166E-01 0.1594489815E-01 0.1759323313E-01 0.2020358924E-01
 0.2424065047E-01 0.3027776073E-01 0.3914918226E-01 0.5230569038E-01 0.7201682663E-01 0.1012413066E+00
 0.1438428227E+00 0.2058880411E+00 0.2962707805E+00 0.4219784194E+00 0.5754465108E+00 0.7243997533E+00
 0.8282233024E+00 0.8736654021E+00 0.8736654021E+00 0.8282233024E+00 0.7243997533E+00 0.5754465108E+00
 0.4219784194E+00 0.2962707805E+00 0.2058880411E+00 0.1438428227E+00 0.1012413066E+00 0.7201682663E-01
 0.5230569038E-01 0.3914918226E-01 0.3027776073E-01 0.2424065047E-01 0.2020358924E-01 0.1759323313E-01
 0.1594489815E-01 0.1492873166E-01 0.1434771025E-01 0.1406294452E-01 0.1394757374E-01 0.1390616554E-01
 0.1341777971E-01 0.1345329727E-01 0.1356686232E-01 0.1380062705E-01 0.1425135287E-01 0.1504446557E-01
 0.1631883342E-01 0.1829201241E-01 0.2133893022E-01 0.2597494086E-01 0.3284609736E-01 0.4297316600E-01
 0.5818229148E-01 0.8127174560E-01 0.1159511560E+00 0.1677145891E+00 0.2461986087E+00 0.3652823867E+00
 0.5326208326E+00 0.7243997533E+00 0.8724500775E+00 0.9189105640E+00 0.8988871955E+00 0.8988871955E+00
 0.9189105640E+00 0.8724500775E+00 0.7243997533E+00 0.5326208326E+00 0.3652823867E+00 0.2461986087E+00
 0.1677145891E+00 0.1159511560E+00 0.8127174560E-01 0.5818229148E-01 0.4297316600E-01 0.3284609736E-01
 0.2597494086E-01 0.2133893022E-01 0.1829201241E-01 0.1631883342E-01 0.1504446557E-01 0.1425135287E-01
 0.1380062705E-01 0.1356686232E-01 0.1345329727E-01 0.1315781562E-01 0.1320832321E-01 0.1336726918E-01
 0.1367893991E-01 0.1424230089E-01 0.1518103058E-01 0.1663432624E-01 0.1883701490E-01 0.2219795544E-01
 0.2726911351E-01 0.3475645845E-01 0.4583777406E-01 0.6263795322E-01 0.8836856916E-01 0.1274039732E+00
 0.1868454036E+00 0.2797358046E+00 0.4239675755E+00 0.6238419607E+00 0.8282233024E+00 0.9189105640E+00
 0.8263597618E+00 0.6761711061E+00 0.6761711061E+00 0.8263597618E+00 0.9189105640E+00 0.8282233024E+00
 0.6238419607E+00 0.4239675755E+00 0.2797358046E+00 0.1868454036E+00 0.1274039732E+00 0.8836856916E-01
 0.6263795322E-01 0.4583777406E-01 0.3475645845E-01 0.2726911351E-01 0.2219795544E-01 0.1883701490E-01
 0.1663432624E-01 0.1518103058E-01 0.1424230089E-01 0.1367893991E-01 0.1336726918E-01 0.1320832321E-01
 0.1303968590E-01 0.1309708375E-01 0.1327772571E-01 0.1362853638E-01 0.1425030895E-01 0.1526533525E-01
 0.1681248597E-01 0.1913572162E-01 0.2266163060E-01 0.2796151730E-01 0.3577620116E-01 0.4737428838E-01
 0.6504695365E-01 0.9223504359E-01 0.1337139269E+00 0.1975982376E+00 0.2990109825E+00 0.4578984131E+00
 0.6742565846E+00 0.8736654021E+00 0.8988871955E+00 0.6761711061E+00 0.4102932833E+00 0.4102932833E+00
 0.6761711061E+00 0.8988871955E+00 0.8736654021E+00 0.6742565846E+00 0.4578984131E+00 0.2990109825E+00
 0.1975982376E+00 0.1337139269E+00 0.9223504359E-01 0.6504695365E-01 0.4737428838E-01 0.3577620116E-01
 0.2796151730E-01 0.2266163060E-01 0.1913572162E-01 0.1681248597E-01 0.1526533525E-01 0.1425030895E-01
 0.1362853638E-01 0.1327772571E-01 0.1309708375E-01 0.1303968590E-01 0.1309708375E-01 0.1327772571E-01
 0.1362853638E-01 0.1425030895E-01 0.1526533525E-01 0.1681248597E-01 0.1913572162E-01 0.2266163060E-01
 0.2796151730E-01 0.3577620116E-01 0.4737428838E-01 0.6504695365E-01 0.9223504359E-01 0.1337139269E+00
 0.1975982376E+00 0.2990109825E+00 0.4578984131E+00 0.6742565846E+00 0.8736654021E+00 0.8988871955E+00
 0.6761711061E+00 0.4102932833E+00 0.4102932833E+00 0.6761711061E+00 0.8988871955E+00 0.8736654021E+00
 0.6742565846E+00 0.4578984131E+00 0.2990109825E+00 0.1975982376E+00 0.1337139269E+00 0.9223504359E-01
 0.6504695365E-01 0.4737428838E-01 0.3577620116E-01 0.2796151730E-01 0.2266163060E-01 0.1913572162E-01
 0.1681248597E-01 0.1526533525E-01 0.1425030895E-01 0.1362853638E-01 0.1327772571E-01 0.1309708375E-01
 0.1315781562E-01 0.1320832321E-01 0.1336726918E-01 0.1367893991E-01 0.1424230089E-01 0.1518103058E-01
 0.1663432624E-01 0.1883701490E-01 0.2219795544E-01 0.2726911351E-01 0.3475645845E-01 0.4583777406E-01
 0.6263795322E-01 0.8836856916E-01 0.1274039732E+00 0.1868454036E+00 0.2797358046E+00 0.4239675755E+00
 0.6238419607E+00 0.8282233024E+00 0.9189105640E+00 0.8263597618E+00 0.6761711061E+00 0.6761711061E+00
 0.8263597618E+00 0.9189105640E+00 0.8282233024E+00 0.6238419607E+00 0.4239675755E+00 0.2797358046E+00
 0.1868454036E+00 0.1274039732E+00 0.8836856916E-01 0.6263795322E-01 0.4583777406E-01 0.3475645845E-01
 0.2726911351E-01 0.2219795544E-01 0.1883701490E-01 0.1663432624E-01 0.1518103058E-01 0.1424230089E-01
 0.1367893991E-01 0.1336726918E-01 0.1320832321E-01 0.1341777971E-01 0.1345329727E-01 0.1356686232E-01
 0.1380062705E-01 0.1425135287E-01 0.1504446557E-01 0.1631883342E-01 0.1829201241E-01 0.2133893022E-01
 0.2597494086E-01 0.3284609736E-01 0.4297316600E-01 0.5818229148E-01 0.8127174560E-01 0.1159511560E+00
 0.1677145891E+00 0.2461986087E+00 0.3652823867E+00 0.5326208326E+00 0.7243997533E+00 0.8724500775E+00
 0.9189105640E+00 0.8988871955E+00 0.8988871955E+00 0.9189105640E+00 0.8724500775E+00 0.7243997533E+00
 0.5326208326E+00 0.3652823867E+00 0.2461986087E+00 0.1677145891E+00 0.1159511560E+00 0.8127174560E-01
 0.5818229148E-01 0.4297316600E-01 0.3284609736E-01 0.2597494086E-01 0.2133893022E-01 0.1829201241E-01
 0.1631883342E-01 0.1504446557E-01 0.1425135287E-01 0.1380062705E-01 0.1356686232E-01 0.1345329727E-01
 0.1389528346E-01 0.1390616554E-01 0.1394757374E-01 0.1406294452E-01 0.1434771025E-01 0.1492873166E-01
 0.1594489815E-01 0.1759323313E-01 0.2020358924E-01 0.2424065047E-01 0.3027776073E-01 0.3914918226E-01
 0.5230569038E-01 0.7201682663E-01 0.1012413066E+00 0.1438428227E+00 0.2058880411E+00 0.2962707805E+00
 0.4219784194E+00 0.5754465108E+00 0.7243997533E+00 0.8282233024E+00 0.8736654021E+00 0.8736654021E+00
 0.8282233024E+00 0.7243997533E+00 0.5754465108E+00 0.4219784194E+00 0.2962707805E+00 0.2058880411E+00
 0.1438428227E+00 0.1012413066E+00 0.7201682663E-01 0.5230569038E-01 0.3914918226E-01 0.3027776073E-01
 0.2424065047E-01 0.2020358924E-01 0.1759323313E-01 0.1594489815E-01 0.1492873166E-01 0.1434771025E-01
 0.1406294452E-01 0.1394757374E-01 0.1390616554E-01 0.1470706788E-01 0.1468354743E-01 0.1462568199E-01
 0.1458169932E-01 0.1464646340E-01 0.1494796208E-01 0.1562824598E-01 0.1686809329E-01 0.1894923970E-01
 0.2227565262E-01 0.2734440383E-01 0.3480949308E-01 0.4573422873E-01 0.6181575733E-01 0.8529158822E-01
 0.1187553601E+00 0.1655099939E+00 0.2300423051E+00 0.3162823855E+00 0.4219784194E+00 0.5326208326E+00
 0.6238419607E+00 0.6742565846E+00 0.6742565846E+00 0.6238419607E+00 0.5326208326E+00 0.4219784194E+00
 0.3162823855E+00 0.2300423051E+00 0.1655099939E+00 0.1187553601E+00 0.8529158822E-01 0.6181575733E-01
 0.4573422873E-01 0.3480949308E-01 0.2734440383E-01 0.2227565262E-01 0.1894923970E-01 0.1686809329E-01
 0.1562824598E-01 0.1494796208E-01 0.1464646340E-01 0.1458169932E-01 0.1462568199E-01 0.1468354743E-01
 0.1597795579E-01 0.1591136409E-01 0.1572944388E-01 0.1548756868E-01 0.1528124657E-01 0.1524029792E-01
 0.1551437890E-01 0.1627666599E-01 0.1776476168E-01 0.2031644523E-01 0.2435413173E-01 0.3038408231E-01
 0.3913190916E-01 0.5174966467E-01 0.6982027634E-01 0.9507872450E-01 0.1291947565E+00 0.1738147903E+00
 0.2300423051E+00 0.2962707805E+00 0.3652823867E+00 0.4239675755E+00 0.4578984131E+00 0.4578984131E+00
 0.4239675755E+00 0.3652823867E+00 0.2962707805E+00 0.2300423051E+00 0.1738147903E+00 0.1291947565E+00
 0.9507872450E-01 0.6982027634E-01 0.5174966467E-01 0.3913190916E-01 0.3038408231E-01 0.2435413173E-01
 0.2031644523E-01 0.1776476168E-01 0.1627666599E-01 0.1551437890E-01 0.1524029792E-01 0.1528124657E-01
 0.1548756868E-01 0.1572944388E-01 0.1591136409E-01 0.1788517426E-01 0.1776508337E-01 0.1742871182E-01
 0.1694217219E-01 0.1640747837E-01 0.1596143525E-01 0.1576600393E-01 0.1599469387E-01 0.1684857958E-01
 0.1859845874E-01 0.2159428508E-01 0.2623559495E-01 0.3300250598E-01 0.4259725402E-01 0.5602950129E-01
 0.7443583844E-01 0.9870533405E-01 0.1291947565E+00 0.1655099939E+00 0.2058880411E+00 0.2461986087E+00
 0.2797358046E+00 0.2990109825E+00 0.2990109825E+00 0.2797358046E+00 0.2461986087E+00 0.2058880411E+00
 0.1655099939E+00 0.1291947565E+00 0.9870533405E-01 0.7443583844E-01 0.5602950129E-01 0.4259725402E-01
 0.3300250598E-01 0.2623559495E-01 0.2159428508E-01 0.1859845874E-01 0.1684857958E-01 0.1599469387E-01
 0.1576600393E-01 0.1596143525E-01 0.1640747837E-01 0.1694217219E-01 0.1742871182E-01 0.1776508337E-01
 0.2076347764E-01 0.2057223023E-01 0.2002981621E-01 0.1922004233E-01 0.1826497890E-01 0.1732174276E-01
 0.1657277234E-01 0.1620037798E-01 0.1638107662E-01 0.1732424490E-01 0.1930616944E-01 0.2264644473E-01
 0.2767523452E-01 0.3478595715E-01 0.4453251457E-01 0.5758199051E-01 0.7443583844E-01 0.9507872450E-01
 0.1187553601E+00 0.1438428227E+00 0.1677145891E+00 0.1868454036E+00 0.1975982376E+00 0.1975982376E+00
 0.1868454036E+00 0.1677145891E+00 0.1438428227E+00 0.1187553601E+00 0.9507872450E-01 0.7443583844E-01
 0.5758199051E-01 0.4453251457E-01 0.3478595715E-01 0.2767523452E-01 0.2264644473E-01 0.1930616944E-01
 0.1732424490E-01 0.1638107662E-01 0.1620037798E-01 0.1657277234E-01 0.1732174276E-01 0.1826497890E-01
 0.1922004233E-01 0.2002981621E-01 0.2057223023E-01 0.2512284504E-01 0.2483330936E-01 0.2400544790E-01
 0.2275015862E-01 0.2122816399E-01 0.1963674033E-01 0.1819267740E-01 0.1710072569E-01 0.1653369720E-01
 0.1665692611E-01 0.1767246864E-01 0.1982139261E-01 0.2334198625E-01 0.2845614098E-01 0.3541794550E-01
 0.4453251457E-01 0.5602950129E-01 0.6982027634E-01 0.8529158822E-01 0.1012413066E+00 0.1159511560E+00
 0.1274039732E+00 0.1337139269E+00 0.1337139269E+00 0.1274039732E+00 0.1159511560E+00 0.1012413066E+00
 0.8529158822E-01 0.6982027634E-01 0.5602950129E-01 0.4453251457E-01 0.3541794550E-01 0.2845614098E-01
 0.2334198625E-01 0.1982139261E-01 0.1767246864E-01 0.1665692611E-01 0.1653369720E-01 0.1710072569E-01
 0.1819267740E-01 0.1963674033E-01 0.2122816399E-01 0.2275015862E-01 0.2400544790E-01 0.2483330936E-01
 0.3160174542E-01 0.3117486081E-01 0.2994904014E-01 0.2807723786E-01 0.2578237843E-01 0.2332546624E-01
 0.2097453583E-01 0.1897278731E-01 0.1751518031E-01 0.1675303851E-01 0.1682647298E-01 0.1788924599E-01
 0.2009827294E-01 0.2358650452E-01 0.2845614098E-01 0.3478595715E-01 0.4259725402E-01 0.5174966467E-01
 0.6181575733E-01 0.7201682663E-01 0.8127174560E-01 0.8836856916E-01 0.9223504359E-01 0.9223504359E-01
 0.8836856916E-01 0.8127174560E-01 0.7201682663E-01 0.6181575733E-01 0.5174966467E-01 0.4259725402E-01
 0.3478595715E-01 0.2845614098E-01 0.2358650452E-01 0.2009827294E-01 0.1788924599E-01 0.1682647298E-01
 0.1675303851E-01 0.1751518031E-01 0.1897278731E-01 0.2097453583E-01 0.2332546624E-01 0.2578237843E-01
 0.2807723786E-01 0.2994904014E-01 0.3117486081E-01 0.4114676194E-01 0.4051341962E-01 0.3869636091E-01
 0.3592730521E-01 0.3253751806E-01 0.2889200401E-01 0.2533439645E-01 0.2215746108E-01 0.1959093944E-01
 0.1779707403E-01 0.1688035786E-01 0.1691440434E-01 0.1796657291E-01 0.2009827294E-01 0.2334198625E-01
 0.2767523452E-01 0.3300250598E-01 0.3913190916E-01 0.4573422873E-01 0.5230569038E-01 0.5818229148E-01
 0.6263795322E-01 0.6504695365E-01 0.6504695365E-01 0.6263795322E-01 0.5818229148E-01 0.5230569038E-01
 0.4573422873E-01 0.3913190916E-01 0.3300250598E-01 0.2767523452E-01 0.2334198625E-01 0.2009827294E-01
 0.1796657291E-01 0.1691440434E-01 0.1688035786E-01 0.1779707403E-01 0.1959093944E-01 0.2215746108E-01
 0.2533439645E-01 0.2889200401E-01 0.3253751806E-01 0.3592730521E-01 0.3869636091E-01 0.4051341962E-01
 0.5550784969E-01 0.5453214825E-01 0.5174645777E-01 0.4753944024E-01 0.4244866155E-01 0.3703314462E-01
 0.3177208125E-01 0.2702585969E-01 0.2304567532E-01 0.1999235763E-01 0.1794684411E-01 0.1692620299E-01
 0.1691440434E-01 0.1788924599E-01 0.1982139261E-01 0.2264644473E-01 0.2623559495E-01 0.3038408231E-01
 0.3480949308E-01 0.3914918226E-01 0.4297316600E-01 0.4583777406E-01 0.4737428838E-01 0.4737428838E-01
 0.4583777406E-01 0.4297316600E-01 0.3914918226E-01 0.3480949308E-01 0.3038408231E-01 0.2623559495E-01
 0.2264644473E-01 0.1982139261E-01 0.1788924599E-01 0.1691440434E-01 0.1692620299E-01 0.1794684411E-01
 0.1999235763E-01 0.2304567532E-01 0.2702585969E-01 0.3177208125E-01 0.3703314462E-01 0.4244866155E-01
 0.4753944024E-01 0.5174645777E-01 0.5453214825E-01 0.7758702554E-01 0.7603179043E-01 0.7161549470E-01
 0.6501204845E-01 0.5712954521E-01 0.4888333247E-01 0.4101704608E-01 0.3402248764E-01 0.2815835616E-01
 0.2352470810E-01 0.2013424707E-01 0.1794684411E-01 0.1688035786E-01 0.1682647298E-01 0.1767246864E-01
 0.1930616944E-01 0.2159428508E-01 0.2435413173E-01 0.2734440383E-01 0.3027776073E-01 0.3284609736E-01
 0.3475645845E-01 0.3577620116E-01 0.3577620116E-01 0.3475645845E-01 0.3284609736E-01 0.3027776073E-01
 0.2734440383E-01 0.2435413173E-01 0.2159428508E-01 0.1930616944E-01 0.1767246864E-01 0.1682647298E-01
 0.1688035786E-01 0.1794684411E-01 0.2013424707E-01 0.2352470810E-01 0.2815835616E-01 0.3402248764E-01
 0.4101704608E-01 0.4888333247E-01 0.5712954521E-01 0.6501204845E-01 0.7161549470E-01 0.7603179043E-01
 0.1114393814E+00 0.1089203958E+00 0.1018106536E+00 0.9129090165E-01 0.7889698816E-01 0.6612940373E-01
 0.5417914264E-01 0.4379029345E-01 0.3525817786E-01 0.2855674344E-01 0.2352470810E-01 0.1999235763E-01
 0.1779707403E-01 0.1675303851E-01 0.1665692611E-01 0.1732424490E-01 0.1859845874E-01 0.2031644523E-01
 0.2227565262E-01 0.2424065047E-01 0.2597494086E-01 0.2726911351E-01 0.2796151730E-01 0.2796151730E-01
 0.2726911351E-01 0.2597494086E-01 0.2424065047E-01 0.2227565262E-01 0.2031644523E-01 0.1859845874E-01
 0.1732424490E-01 0.1665692611E-01 0.1675303851E-01 0.1779707403E-01 0.1999235763E-01 0.2352470810E-01
 0.2855674344E-01 0.3525817786E-01 0.4379029345E-01 0.5417914264E-01 0.6612940373E-01 0.7889698816E-01
 0.9129090165E-01 0.1018106536E+00 0.1089203958E+00 0.1631739012E+00 0.1589725443E+00 0.1472426470E+00
 0.1302131871E+00 0.1105935936E+00 0.9081084606E-01 0.7265293027E-01 0.5718773270E-01 0.4478436441E-01
 0.3525817786E-01 0.2815835616E-01 0.2304567532E-01 0.1959093944E-01 0.1751518031E-01 0.1653369720E-01