# -0.6234108236519401 -0.6234108236519401
# -0.5434976225374706 -0.5434976225374706
# -0.2740762439265872 -0.2740762439265872
# -0.2712179700276584 -0.2712179700276584
# -0.1325560624226832 -0.1325560624226832
# -0.1325560624155942 -0.1325560624155942
# -0.0248564889722243 -0.0248564889722243
# -0.0234644334520541 -0.0234644334520541
# -0.0234644334439290 -0.0234644334439290
#  0.0094177109636126  0.0094177109636126
#  0.0763988286223935  0.0763988286223935
#  0.1777142497472294  0.1777142497472294
 DIM-GROUP
 3  1
 PRIMVEC
 4.0178100000E+00   0.0000000000E+00   0.0000000000E+00
 5.1184390385E-18   4.0178100000E+00   0.0000000000E+00
 6.3237877933E-18   6.3237877933E-18   4.9639700000E+00
 PRIMCOORD
            4 1
       82    4.0934969137E-18    2.0089050000E+00    1.2043584014E+00
        8    0.0000000000E+00    0.0000000000E+00    0.0000000000E+00
        8    2.0089050000E+00    2.0089050000E+00    0.0000000000E+00
       82    2.0089050000E+00    4.7895103989E-18    3.7596115986E+00
 ATOMS
       82    4.0934969137E-18    2.0089050000E+00    1.2043584014E+00
        8    0.0000000000E+00    0.0000000000E+00    0.0000000000E+00
        8    2.0089050000E+00    2.0089050000E+00    0.0000000000E+00
       82    2.0089050000E+00    4.7895103989E-18    3.7596115986E+00
 BEGIN_BLOCK_DATAGRID3D
 datagrids
 DATAGRID_3D_DENSITY
           45          45          54
 0.0 0.0 0.0 
 4.0178100000E+00   0.0000000000E+00   0.0000000000E+00
 5.1184390385E-18   4.0178100000E+00   0.0000000000E+00
 6.3237877933E-18   6.3237877933E-18   4.9639700000E+00
  0.0000000026293370
  0.1030342532876983
  0.1737512551738620
  0.1979936936512465
  0.1841863505274530
  0.1527283898661238
  0.1212268059382199
  0.0970692520857260
  0.0796268706527709
  0.0661316915017483
  0.0550786174388349
  0.0461102687854743
  0.0388974956405815
  0.0328934691185022
  0.0277052085628065
  0.0232026366503868
  0.0192888813460755
  0.0157809461351099
  0.0125244826764045
  0.0094808319233220
  0.0066465685251854
  0.0039572655389982
  0.0013178414159069
 -0.0013178756345456
 -0.0039572994850636
 -0.0066466018585418
 -0.0094808641898164
 -0.0125245132992418
 -0.0157809744505716
 -0.0192889066754415
 -0.0232026583879802
 -0.0277052262588553
 -0.0328934825436634
 -0.0388975048251431
 -0.0461102740237963
 -0.0550786192487028
 -0.0661316905429185
 -0.0796268676317208
 -0.0970692476780275
 -0.1212268007364568
 -0.1527283843379408
 -0.1841863449775462
 -0.1979936882107103
 -0.1737512498426838
 -0.1030342480141810
  5.4545206675276940
  5.2468332725196380
  4.5081184818617000
  3.4904994956154820
  2.4826125049761460
  1.6778225725934350
  1.1266654609387110
  0.7782887847834432
  0.5546196992416765
  0.3992970624303871
  0.2850113608920072
  0.1994188811125487
  0.1337078747198490
  0.0806682918225389
  0.0361071794377077
 -0.0017247431112672
 -0.0339546367505896
 -0.0617055125643638
 -0.0855370110490316
 -0.1052475207236874
 -0.1204685606098864
 -0.1312036250838757
 -0.1377524590970637
 -0.1403515762663514
 -0.1390051888913897
 -0.1335650623696596
 -0.1239237913096175
 -0.1102140213127321
 -0.0928144767435083
 -0.0719960817958186
 -0.0474954859159286
 -0.0185521611606446
  0.0157685799814190
  0.0569818151309941
  0.1085491363057455
  0.1766317724122174
  0.2694147157544241
  0.3986736051131876
  0.5891407250580314
  0.8922501888893228
  1.3849839942500150
  2.1318953027188690
  3.1152064751842730
  4.1796290470093420
  5.0522860089553450
  9.1982006785663980
  8.7769894061436360
  7.5047076782049920
  5.8080230614875750
  4.1541329836004020
  2.8420807581484860
  1.9387776765006560
  1.3558178063024820
  0.9696767483767759
  0.6947352497851131
  0.4899223382311551
  0.3352417853779131
  0.2153556101856440
  0.1180154237438503
  0.0363111106785709
 -0.0328144802226310
 -0.0915800341668741
 -0.1420833720831448
 -0.1853008585684776
 -0.2208987117528041
 -0.2482405642905328
 -0.2671533136577403
 -0.2777955306376403
 -0.2802823163182588
 -0.2746120638246191
 -0.2607499208609456
 -0.2387336393122859
 -0.2088885560738286
 -0.1718684963964684
 -0.1280536804456013
 -0.0767278064571321
 -0.0161439593987083
  0.0557249511294952
  0.1417672364260470
  0.2483109217260963
  0.3866846033063376
  0.5716774282095332
  0.8230653173819205
  1.1804290056317490
  1.7260458879051510
  2.5828347568314860
  3.8501494553344500
  5.4874072304154540
  7.2264406799295520
  8.6128804569381930
 10.4815677285638100
  9.9961891767491820
  8.5932076868419780
  6.7384458737378070
  4.9316027795331600
  3.4844648007835520
  2.4614038829827250
  1.7690692047553040
  1.2842166143390820
  0.9247953895557068
  0.6512169364524993
  0.4411129841508685
  0.2753478082946373
  0.1390601506589195
  0.0241337854954854
 -0.0733846020576896
 -0.1567302160804140
 -0.2286967438276926
 -0.2903725993669978
 -0.3412615141545629
 -0.3805795468953159
 -0.4078983735681992
 -0.4228774770883313
 -0.4251707584172988
 -0.4147761778209719
 -0.3921165637189794
 -0.3577284607381684
 -0.3122052776750292
 -0.2563555931839628
 -0.1906907044745157
 -0.1143261852732278
 -0.0247948123949888
  0.0809449946420904
  0.2067544978243522
  0.3603744581203617
  0.5559455735510255
  0.8121482391140676
  1.1514744287996880
  1.6132601006876450
  2.2781719201589550
  3.2695718798818920
  4.6884335207310950
  6.4885910803124090
  8.3798403664525840
  9.8714093579125230
  9.7506219071914120
  9.3268741374466110
  8.1218757243912930
  6.5274166186797830
  4.9574396149302550
  3.6657487292033720
  2.7047591000802960
  2.0055923275211700
  1.4808766615222280
  1.0748015135324250
  0.7583398133761785
  0.5098978644372847
  0.3091038832744033
  0.1409708457814504
 -0.0024522189255189
 -0.1256243254497600
 -0.2324236213676724
 -0.3255979023756175
 -0.4056520690246767
 -0.4716794391173675
 -0.5228383311975487
 -0.5585266770598576
 -0.5778344221697995
 -0.5798503865853101
 -0.5645830746478500
 -0.5330265197421910
 -0.4862760899125794
 -0.4250998932520431
 -0.3503741708837841
 -0.2629952913975264
 -0.1625951365587814
 -0.0467062084711691
  0.0883581617011528
  0.2470279223101906
  0.4370956167560327
  0.6730773291608279
  0.9749895505564203
  1.3647273335301120
  1.8719613325416570
  2.5527795013011800
  3.4954433136438360
  4.7736227938026660
  6.3456970120533240
  7.9706772117528000
  9.2397074566200850
  8.0852733426722970
  7.7802045491668880
  6.9133377274203780
  5.7518900439191580
  4.5755293460444070
  3.5561409127169020
  2.7363588420919940
  2.0857210478113330
  1.5637976623926330
  1.1446340005521170
  0.8097581688193977
  0.5392418631476991
  0.3139474960326417
  0.1210321656356978
 -0.0462608811654605
 -0.1925293706942767
 -0.3217353323526874
 -0.4357782142178289
 -0.5339721816431513
 -0.6147832645232002
 -0.6773315944022529
 -0.7209356208957557
 -0.7442466369000023
 -0.7459061021309046
 -0.7259439433575928
 -0.6858163676094144
 -0.6270337361055404
 -0.5504315111971876
 -0.4569439561000089
 -0.3480921964359155
 -0.2246330944118538
 -0.0848730883366025
  0.0749786717093821
  0.2595272746358741
  0.4755526954140128
  0.7356975846822920
  1.0588732651684950
  1.4653083862902100
  1.9744559272254400
  2.6134864230587340
  3.4242828878776250
  4.4402566309761230
  5.6243083403795310
  6.8108627050733650
  7.7223490504980750
  6.4176162823599480
  6.2239144380087480
  5.6655101535726300
  4.8948170988306390
  4.0724763211989720
  3.3028968027164270
  2.6253635966506760
  2.0434368713317000
  1.5524277315722320
  1.1457599051577080
  0.8108218001681023
  0.5300977917074777
  0.2883039476129617
  0.0764608055720002
 -0.1104554127659979
 -0.2768923986598251
 -0.4264443615066295
 -0.5598363743491455
 -0.6751565645776143
 -0.7702291686560794
 -0.8439215836205137
 -0.8952296367574992
 -0.9223426006367046
 -0.9235740723836406
 -0.8989830808400305
 -0.8503752858363794
 -0.7796908587456876
 -0.6880661974037390
 -0.5767184959376198
 -0.4478356873955078
 -0.3033469019007424
 -0.1426340498003868
  0.0377728612099451
  0.2423369450219841
  0.4762147711563226
  0.7484327810839237
  1.0742284601197160
  1.4713535694995950
  1.9532923570232270
  2.5280178524212580
  3.2018399100444960
  3.9731630571921320
  4.8052879756122770
  5.5962827590415780
  6.1857777368302140
  5.1387436128571660
  5.0195645558171690
  4.6664037641416010
  4.1561308812840700
  3.5737654452653530
  2.9834772871011150
  2.4238264694398080
  1.9167833798679060
  1.4736744099331890
  1.0946536187738140
  0.7697705039070128
  0.4858017151028121
  0.2332789012856626
  0.0074471925859888
 -0.1952319421801547
 -0.3789222357189779
 -0.5465575407861905
 -0.6977943073740194
 -0.8298433838420964
 -0.9398530210227924
 -1.0258382075901460
 -1.0857860936106260
 -1.1171243120110630
 -1.1178556692959000
 -1.0880736362539620
 -1.0299259996599480
 -0.9460866562451841
 -0.8386755087099417
 -0.7097913655340214
 -0.5623359054898982
 -0.3990756132992299
 -0.2203514688131427
 -0.0232829070727751
  0.1962974105935346
  0.4420830164212153
  0.7190467637750848
  1.0368196252470260
  1.4088562396648830
  1.8457110437469730
  2.3483295132614310
  2.9067818224671900
  3.5005196743325980
  4.0922397384234960
  4.6184948515616110
  4.9937342368458780
  4.2153635980156140
  4.1368156920284030
  3.8976604866748010
  3.5366213040841220
  3.1012884738661990
  2.6355690857229320
  2.1745496124618090
  1.7429277325539330
  1.3532957085437000
  1.0061835828992330
  0.6947840285121420
  0.4119731096489817
  0.1539288027757510
 -0.0814286310624722
 -0.2971356687146394
 -0.4968893498627875
 -0.6824671064722634
 -0.8523815868270801
 -1.0030673290331740
 -1.1306753257121340
 -1.2315870993124750
 -1.3020659252946720
 -1.3385134488551470
 -1.3386589287680060
 -1.3026341368171790
 -1.2329072882114920
 -1.1331723282733570
 -1.0072544940262210
 -0.8589008733321364
 -0.6920372242098363
 -0.5101749403901350
 -0.3146952486028547
 -0.1037861970320013
  0.1262450431804990
  0.3785465677329707
  0.6554766732380666
  0.9611888835979276
  1.3031169001260740
  1.6884776267069610
  2.1174313275949500
  2.5783502198255090
  3.0475359055501170
  3.4906118631069190
  3.8637961498959240
  4.1188082793444910
  3.5009432555750960
  3.4442343344269230
  3.2692378051497910
  2.9981167093142200
  2.6613306006123470
  2.2908535601413160
  1.9143671381503910
  1.5509665775880610
  1.2095671581193810
  0.8912118750609116
  0.5939263504274479
  0.3163197083426541
  0.0575882818114836
 -0.1842826291429885
 -0.4126769489415953
 -0.6301690127439131
 -0.8364624711215530
 -1.0284217600774550
 -1.2014070791043500
 -1.3501341691953140
 -1.4688307237843220
 -1.5517118402956700
 -1.5941145215748980
 -1.5935696157280310
 -1.5502487219355520
 -1.4668832476956440
 -1.3482615820266960
 -1.2002576806297370
 -1.0287695002787510
 -0.8391597461980875
 -0.6359881204548483
 -0.4222018381223727
 -0.1979642971270930
  0.0393265247307007
  0.2931173709578042
  0.5656660841517319
  0.8581666499374547
  1.1724040968104810
  1.5107037045460490
  1.8724322429385090
  2.2492299895899120
  2.6226106833771470
  2.9653063838807140
  3.2453156629539550
  3.4316025762906190
  2.9158050317388010
  2.8731117276283720
  2.7409287217398860
  2.5331849099068910
  2.2703729811400170
  1.9749414138973960
  1.6661313254282850
  1.3566920700437290
  1.0531976010919830
  0.7589861008091074
  0.4765759240270067
  0.2074505760977535
 -0.0495009164512784
 -0.2978704916490042
 -0.5410692286494656
 -0.7795065782170238
 -1.0101484507069360
 -1.2280216139551040
 -1.4272815353190870
 -1.6009405643890210
 -1.7407462676652440
 -1.8385304494960280
 -1.8882094761767630
 -1.8868474104524660
 -1.8346580915948250
 -1.7349247414360970
 -1.5939262598177960
 -1.4199451997069540
 -1.2213411241170630
 -1.0051534231003940
 -0.7771261673689753
 -0.5419968514919337
 -0.3025707292247249
 -0.0583171461507556
  0.1942517942257415
  0.4589049706382582
  0.7370817494376625
  1.0276915855767730
  1.3285687639752490
  1.6366774806935910
  1.9457482263030900
  2.2433339497557880
  2.5103819805164880
  2.7243698852479870
  2.8643914298947810
  2.4410299430275040
  2.4081837123365420
  2.3065263619461460
  2.1446766427041890
  1.9359816048701870
  1.6954033290408690
  1.4357594775656540
  1.1659743573452670
  0.8922489287275612
  0.6199093321626057
  0.3531585518176411
  0.0929917226512463
 -0.1636056678483284
 -0.4211679468367798
 -0.6818141686280322
 -0.9434577542279029
 -1.2011681367567510
 -1.4491229479840050
 -1.6805347996589850
 -1.8861868478894820
 -2.0543330715382460
 -2.1730850619125210
 -2.2334885491987730
 -2.2311330177639220
 -2.1662903612855540
 -2.0438413786147070
 -1.8730468879346430
 -1.6659531512788340
 -1.4343714114183840
 -1.1875024577046790
 -0.9320032727901962
 -0.6734483090184354
 -0.4164716995345872
 -0.1629069264837025
  0.0895436813827058
  0.3455705115596820
  0.6083972459584687
  0.8773162473831280
  1.1484468917514650
  1.4167505341121690
  1.6762341642263230
  1.9180931833649400
  2.1295367871211260
  2.2955032275372100
  2.4023662892118960
  2.0591931573781030
  2.0326998660979400
  1.9512188286586280
  1.8201824031198730
  1.6483706154766810
  1.4458908655519440
  1.2217339559718230
  0.9829376095042865
  0.7354204901448366
  0.4842942445334574
  0.2323425270133566
 -0.0215791915987596
 -0.2815400004512356
 -0.5510638289278598
 -0.8303337398225963
 -1.1163945239853530
 -1.4050258094680190
 -1.6911177921340400
 -1.9665862294041520
 -2.2182494274194580
 -2.4285769337567810
 -2.5794941755695010
 -2.6568358714442660
 -2.6532065199116290
 -2.5689799166116880
 -2.4122230636198120
 -2.1975705098661860
 -1.9433080194365110
 -1.6669497372779570
 -1.3815200780018480
 -1.0948823750805810
 -0.8118832566094869
 -0.5364236574218163
 -0.2711007898509492
 -0.0154114719191370
  0.2343791734840477
  0.4824635490302164
  0.7301280869832867
  0.9748230388443730
  1.2117103054651740
  1.4350580958204160
  1.6378654496811510
  1.8110756333310650
  1.9444728842297680
  2.0290977945884140
  1.7413461815146790
  1.7187722239299680
  1.6504370946421750
  1.5403555254231380
  1.3947959438473790
  1.2208628796749850
  1.0251282808421940
  0.8132598752722112
  0.5900436159612525
  0.3585362917206903
  0.1187418030164007
 -0.1322185018880058
 -0.3977888280671880
 -0.6796372725160571
 -0.9776021087955854
 -1.2911749239378930
 -1.6194684413268330
 -1.9582449613101180
 -2.2961179504486930
 -2.6132427246673080
 -2.8837857831504680
 -3.0809986159888230
 -3.1829878808394940
 -3.1776540254216270
 -3.0655515071531950
 -2.8597810478942760
 -2.5829340900327130
 -2.2620320209207030
 -1.9227682071158030
 -1.5845919356028570
 -1.2584502028640700
 -0.9482136246325081
 -0.6544370427871382
 -0.3772465361174518
 -0.1163957515506650
  0.1300839511280724
  0.3657568177044775
  0.5935422668058103
  0.8135590068951166
  1.0229704407350330
  1.2171602918865300
  1.3904639846295830
  1.5361996914899030
  1.6471551897167410
  1.7169505599894240
  1.4666851593152290
  1.4469698836720140
  1.3886486397506500
  1.2951080068818170
  1.1709154917729910
  1.0208062310279390
  0.8493612022630919
  0.6609755943382456
  0.4590143177915911
  0.2442336836236066
  0.0143244898450593
 -0.2342400445998665
 -0.5038852287009634
 -0.7960873735254970
 -1.1137071323001680
 -1.4615375345067470
 -1.8423707946725560
 -2.2509629720781960
 -2.6705864582914410
 -3.0737777110673950
 -3.4254056331789600
 -3.6870808328209480
 -3.8243830190667200
 -3.8167254607013580
 -3.6649771372185050
 -3.3912530460971200
 -3.0309589866910550
 -2.6227896667811200
 -2.2015628936553660
 -1.7940294775736710
 -1.4161120857400520
 -1.0724120815721940
 -0.7597093538051800
 -0.4728642818764199
 -0.2086395651045344
  0.0347832723499958
  0.2600042893637185
  0.4705716209957633
  0.6688258445559282
  0.8541419914531028
  1.0232833154236060
  1.1718440798565480
  1.2951204925744020
  1.3882676882524710
  1.4466382751345710
  1.2283239558460130
  1.2110628054858460
  1.1613282121969320
  1.0819294260194340
  0.9758758803316441
  0.8458288049760195
  0.6947567055739188
  0.5261014632530556
  0.3421513000694035
  0.1420703714547797
 -0.0777100983989357
 -0.3209074374262748
 -0.5903007272165375
 -0.8902878861502334
 -1.2295684728264720
 -1.6185855849196980
 -2.0620983182480590
 -2.5532403750596320
 -3.0728263349875760
 -3.5900335966729790
 -4.0601470775890380
 -4.4242345382812410
 -4.6208557801306670
 -4.6099107017478800
 -4.3928681005252590
 -4.0122682250407940
 -3.5308335073459680
 -3.0076124110126640
 -2.4866434837690290
 -1.9976467852740520
 -1.5585702285710870
 -1.1752106655346390
 -0.8421263298414636
 -0.5485304356084870
 -0.2854805795379520
 -0.0483057911880968
  0.1659876940362145
  0.3611744447101216
  0.5407976172779159
  0.7057172624273919
  0.8537088876308990
  0.9813202645657801
  1.0854752291354310
  1.1633974354423530
  1.2119925625834590
  1.0211341493590940
  1.0059367319373100
  0.9633641795093932
  0.8956352618810728
  0.8045372000371368
  0.6913262482736783
  0.5579600516697194
  0.4071720513475684
  0.2403343970122808
  0.0555698726030724
 -0.1512496295209292
 -0.3842838805112779
 -0.6485032569229519
 -0.9534257777527804
 -1.3139166728572330
 -1.7443454367339470
 -2.2513521998775290
 -2.8327081201640010
 -3.4790217919697790
 -4.1658991343905340
 -4.8347521083982250
 -5.3832787703820860
 -5.6908735172507450
 -5.6748982244891560
 -5.3380709374390640
 -4.7672467725153790
 -4.0845593550042460
 -3.3915484367351450
 -2.7450995842302130
 -2.1678746098423820
 -1.6676583033743610
 -1.2452263485714630
 -0.8929021787815807
 -0.5958663386759588
 -0.3391626688708265
 -0.1131812109417083
  0.0872218641551122
  0.2662983739427189
  0.4281187259770297
  0.5744749535776942
  0.7039791028241428
  0.8138955244445203
  0.9021979452159784
  0.9675129991199704
  1.0079381120013570
  0.8354279799227888
  0.8219790276289365
  0.7854318400677760
  0.7275344182362602
  0.6494308059800714
  0.5518148977901763
  0.4361267651497354
  0.3042618759945799
  0.1563997952931794
 -0.0102248559672353
 -0.1999625373630449
 -0.4176995296708180
 -0.6714326432580138
 -0.9757079308590866
 -1.3496500136900540
 -1.8103896974851040
 -2.3716394888311490
 -3.0507092556029920
 -3.8675075889169230
 -4.8145164221192720
 -5.8071190203356850
 -6.6632110527324480
 -7.1572944933169860
 -7.1331755471871010
 -6.5960710398264970
 -5.7098678590173950
 -4.7017912207236370
 -3.7509102644787470
 -2.9375924524832860
 -2.2662767518955560
 -1.7151881193912790
 -1.2655433860275710
 -0.9023969454388867
 -0.6079998888828857
 -0.3632312704879209
 -0.1536948535525087
  0.0286348543212308
  0.1887254086232701
  0.3308507576918239
  0.4575959615405103
  0.5686781682981560
  0.6621997289884493
  0.7366969205874294
  0.7913623027995178
  0.8248978670846534
  0.6630343757265333
  0.6513392545472838
  0.6206314669480624
  0.5722088126127534
  0.5069279064202724
  0.4254283283652348
  0.3288363288428364
  0.2180233781717988
  0.0918454655767187
 -0.0531067877593806
 -0.2210802066538030
 -0.4175756328926329
 -0.6530909003560610
 -0.9452890648836348
 -1.3151536719481990
 -1.7836113275341070
 -2.3802714555933020
 -3.1582332395493000
 -4.1826121108230380
 -5.4667851457988590
 -6.8850121328387530
 -8.1444590658703930
 -8.8810220065655940
 -8.8441390395880130
 -8.0433800500048220
 -6.7430593619170800
 -5.3092734189923260
 -4.0275256400612370
 -3.0143241509213750
 -2.2504889279338740
 -1.6687540688233260
 -1.2151637048672970
 -0.8591872202859008
 -0.5792343429641925
 -0.3543615908925143
 -0.1672970085231511
 -0.0077400851091805
  0.1298198395430967
  0.2495412094442360
  0.3545872143547661
  0.4459124071324749
  0.5226205775024775
  0.5835913390204313
  0.6280775935301136
  0.6550369359670031
  0.5019067662191119
  0.4921872026765841
  0.4677406036635121
  0.4292701545688075
  0.3773185132288964
  0.3125353542052320
  0.2358077910809860
  0.1471892290194777
  0.0447132349744980
 -0.0750518253668628
 -0.2158396736237829
 -0.3833132566992584
 -0.5890673780092323
 -0.8513320488107271
 -1.1910498789146300
 -1.6342546995804450
 -2.2309513176717770
 -3.0736649301350910
 -4.2710418525201670
 -5.8513807828800630
 -7.6450983597895230
 -9.2564797695104400
-10.1997603356450800
-10.1450831081099800
 -9.1083494656213690
 -7.4420469855858580
 -5.6344182582741740
 -4.0674860716958220
 -2.8939053996913800
 -2.0751032190955900
 -1.4997441487616800
 -1.0757336231934070
 -0.7531781196492422
 -0.5056540731853388
 -0.3123025976196903
 -0.1554896769135846
 -0.0240799738942620
  0.0874766310342680
  0.1828140719633944
  0.2650853316117346
  0.3359929238185053
  0.3954140228444938
  0.4424738776670910
  0.4764229279461411
  0.4965161829320597
  0.3518637975395411
  0.3442587668845672
  0.3263093010867771
  0.2980813071644586
  0.2597040326661021
  0.2117132658205181
  0.1548242206520780
  0.0887858140178386
  0.0116684026985472
 -0.0792756390277966
 -0.1869196836191859
 -0.3164162623491185
 -0.4785994066691787
 -0.6896409034125697
 -0.9683853126077094
 -1.3435739910712440
 -1.8775248748835560
 -2.6829699919951790
 -3.8861399895550320
 -5.5171732707701920
 -7.3872066015705510
 -9.0676717369320450
-10.0422018919367500
 -9.9667394991943250
 -8.8646791888345840
 -7.1132974571376120
 -5.2321826524842320
 -3.6287107270081100
 -2.4654183588169670
 -1.6961466786607520
 -1.1910890573330640
 -0.8396211256673395
 -0.5811469864454748
 -0.3871583883783787
 -0.2390031384073780
 -0.1212653968333789
 -0.0238209279655719
  0.0582219500645689
  0.1276185889542623
  0.1868289951709016
  0.2374627403972558
  0.2796490201867638
  0.3126773174644361
  0.3359239858376205
  0.3490573886102643
  0.2094947646597605
  0.2039515972069025
  0.1923126829811259
  0.1742821945003541
  0.1497024089552396
  0.1189024309691987
  0.0824059314295708
  0.0400185740593142
 -0.0095604470016786
 -0.0680252677077396
 -0.1371918226409798
 -0.2208368880855113
 -0.3269337041198425
 -0.4669307187344913
 -0.6545134988757548
 -0.9135313201191767
 -1.2978920860997390
 -1.9023971566616570
 -2.8284068435448690
 -4.0943948310641820
 -5.5424900209375210
 -6.8302716823323710
 -7.5560862792225650
 -7.4615755424968900
 -6.5770131214039360
 -5.2037546067163180
 -3.7474899977706860
 -2.5226245135736370
 -1.6519342002192410
 -1.0953697633915080
 -0.7469795242329808
 -0.5156358264145632
 -0.3508246026778901
 -0.2296808386162615
 -0.1388675673560708
 -0.0678065012583593
 -0.0094302163413932
  0.0396415391791637
  0.0810821356517920
  0.1162980846665539
  0.1462335691123621
  0.1709176318221993
  0.1898222824329671
  0.2025464756521647
  0.2090557634301394
  0.0697661793278543
  0.0661707471528257
  0.0605530777616401
  0.0526923866513458
  0.0424274735118257
  0.0298510068771126
  0.0151620996906119
 -0.0017503122118880
 -0.0214346142348796
 -0.0445304670802162
 -0.0717079157580720
 -0.1045172923703804
 -0.1462195682905445
 -0.2012597458764494
 -0.2748609193746602
 -0.3768941553842709
 -0.5302063936261573
 -0.7733884180805326
 -1.1436863048281890
 -1.6394349379405550
 -2.1864367829832540
 -2.6434967351103350
 -2.8597489007187630
 -2.7537127454073570
 -2.3598187856810760
 -1.8084753798905370
 -1.2551283880069650
 -0.8088645334356945
 -0.5034466966732976
 -0.3155111741246938
 -0.2025284052208039
 -0.1305231946688206
 -0.0811095189325365
 -0.0459147390131803
 -0.0201821185842417
 -0.0003983382722756
  0.0156838727731502
  0.0291363499191508
  0.0404677911912134
  0.0500309239362346
  0.0579995612339195
  0.0642958081335125
  0.0687117756065969
  0.0710950080725427
  0.0714240517655407
 -0.0697661919267883
 -0.0714240642518213
 -0.0710950202283135
 -0.0687117872313031
 -0.0642958190459756
 -0.0579995712740940
 -0.0500309329735846
 -0.0404677991349630
 -0.0291363567196788
 -0.0156838784135836
  0.0003983337834310
  0.0201821152142556
  0.0459147367110490
  0.0811095176488361
  0.1305231943730933
  0.2025284058884493
  0.3155111756982548
  0.5034466990467444
  0.8088645364967024
  1.2551283916974460
  1.8084753842001940
  2.3598187905494210
  2.7537127506232920
  2.8597489059347210
  2.6434967399787460
  2.1864367872930160
  1.6394349416311790
  1.1436863078893810
  0.7733884204541885
  0.5302063951999023
  0.3768941560520016
  0.2748609190788371
  0.2012597445924182
  0.1462195659878374
  0.1045172889996125
  0.0717079112683122
  0.0445304614388206
  0.0214346074334228
  0.0017503042673040
 -0.0151621087286640
 -0.0298510169178411
 -0.0424274844246985
 -0.0526923982763329
 -0.0605530899175827
 -0.0661707596391872
 -0.2094947770352174
 -0.2090557756921252
 -0.2025464875807984
 -0.1898222938247376
 -0.1709176424927801
 -0.1462335788991878
 -0.1162980934372690
 -0.0810821433144226
 -0.0396415456841758
  0.0094302110085849
  0.0678064970848638
  0.1388675643036801
  0.2296808366277061
  0.3508246016960045
  0.5156358264003871
  0.7469795251565171
  1.0953697651968850
  1.6519342028067490
  2.5226245168327340
  3.7474900016328970
  5.2037546111535700
  6.5770131263475210
  7.4615755477515420
  7.5560862844772850
  6.8302716872761520
  5.5424900253750920
  4.0943948349268360
  2.8284068468045360
  1.9023971592497930
  1.2978920879056450
  0.9135313210429203
  0.6545134988612258
  0.4669307177515434
  0.3269337021294956
  0.2208368850307216
  0.1371918184646972
  0.0680252623720139
  0.0095604404938598
 -0.0400185817244592
 -0.0824059402023965
 -0.1189024407576868
 -0.1497024196270486
 -0.1742822058929669
 -0.1923126949102755
 -0.2039516094691313
 -0.3518638094816491
 -0.3490574004368829
 -0.3359239973240419
 -0.3126773284008250
 -0.2796490303826017
 -0.2374627496856881
 -0.1868290034173264
 -0.1276185960660085
 -0.0582219559936386
  0.0238209232287037
  0.1212653932674947
  0.2390031359643685
  0.3871583869898320
  0.5811469860401979
  0.8396211261901532
  1.1910890587422170
  1.6961466809007700
  2.4654183617985240
  3.6287107306262250
  5.2321826566574560
  7.1132974618123600
  8.8646791939305610
  9.9667395045423600
 10.0422018972849000
  9.0676717420283630
  7.3872066062458670
  5.5171732749442150
  3.8861399931741440
  2.6829699949777810
  1.8775248771243740
  1.3435739924805790
  0.9683853131297209
  0.6896409030052957
  0.4785994052774385
  0.3164162599019383
  0.1869196800485233
  0.0792756342859704
 -0.0116684086323567
 -0.0887858211338091
 -0.1548242289020341
 -0.2117132751117241
 -0.2597040428639871
 -0.2980813181022520
 -0.3263093125740610
 -0.3442587787115929
 -0.5019067775372741
 -0.4965161941311529
 -0.4764229387933528
 -0.4424738879429754
 -0.3954140323499569
 -0.3359929323818054
 -0.2650853390972275
 -0.1828140782800018
 -0.0874766361383105
  0.0240799700040670
  0.1554896742041378
  0.3123025960293077
  0.5056540726306419
  0.7531781200402391
  1.0757336244522550
  1.4997441508277710
  2.0751032219091010
  2.8939054031737950
  4.0674860757532390
  5.6344182628197380
  7.4420469905468700
  9.1083494709104510
 10.1450831135879000
 10.1997603411231800
  9.2564797748000610
  7.6450983647514390
  5.8513807874268690
  4.2710418565790570
  3.0736649336189300
  2.2309513204862120
  1.6342547016464490
  1.1910498801719260
  0.8513320491984806
  0.5890673774496573
  0.3833132551027001
  0.2158396709073899
  0.0750518214695462
 -0.0447132400852913
 -0.1471892353420623
 -0.2358077985714515
 -0.3125353627724268
 -0.3773185227372317
 -0.4292701648466655
 -0.4677406145119390
 -0.4921872138762522
 -0.6630343862500014
 -0.6550369463663583
 -0.6280776035617015
 -0.5835913484531017
 -0.5226205861276659
 -0.4459124147742314
 -0.3545872208785027
 -0.2495412147633506
 -0.1298198436213136
  0.0077400822616630
  0.1672970068576347
  0.3543615903295073
  0.5792343434010460
  0.8591872216096490
  1.2151637069726710
  1.6687540716246560
  2.2504889313603800
  3.0143241549021860
  4.0275256445182460
  5.3092734238467050
  6.7430593670940220
  8.0433800554219490
  8.8441390451376560
  8.8810220121155140
  8.1444590712883490
  6.8850121380170420
  5.4667851506550060
  4.1826121152819990
  3.1582332435317990
  2.3802714590206270
  1.7836113303347580
  1.3151536740509010
  0.9452890662025271
  0.6530909007860251
  0.4175756323211802
  0.2210802049789760
  0.0531067849024453
 -0.0918454696637792
 -0.2180233834986909
 -0.3288363353730135
 -0.4254283360120247
 -0.5069279150491707
 -0.5722088220479753
 -0.6206314769812247
 -0.6513392649473851
 -0.8354279895054333
 -0.8248978765369961
 -0.7913623118653643
 -0.7366969290235856
 -0.6621997365778420
 -0.5686781748624401
 -0.4575959669485029
 -0.3308507618641510
 -0.1887254115341855
 -0.0286348559961657
  0.1536948530443900
  0.3632312710433619
  0.6079998903741419
  0.9023969477259193
  1.2655433889752700
  1.7151881228859750
  2.2662767558503720
  2.9375924568301070
  3.7509102691568660
  4.7017912256746340
  5.7098678641839520
  6.5960710451475960
  7.1331755525909260
  7.1572944987212140
  6.6632110580547290
  5.8071190255040990
  4.8145164270725740
  3.8675075935973840
  3.0507092599515660
  2.3716394927863820
  1.8103897009781800
  1.3496500166336010
  0.9757079331393144
  0.6714326447400836
  0.4176995302153224
  0.1999625368430969
  0.0102248542804894
 -0.1563997982150873
 -0.3042618801765163
 -0.4361267705656561
 -0.5518149043606447
 -0.6494308135740189
 -0.7275344266755481
 -0.7854318491355549
 -0.8219790370821943
 -1.0211341578900120
 -1.0079381203948900
 -0.9675130071065131
 -0.9021979525413315
 -0.8138955308854567
 -0.7039791082025229
 -0.5744749577683379
 -0.4281187289109576
 -0.2662983756089780
 -0.0872218645998824
  0.1131812116220083
  0.3391626705415531
  0.5958663411774923
  0.8929021819432605
  1.2452263522287210
  1.6676583073871980
  2.1678746141069660
  2.7450995886775820
  3.3915484413207930
  4.0845593596973200
  4.7672467772914480
  5.3380709422745500
  5.6748982293567550
  5.6908735221188790
  5.3832787752191110
  4.8347521131766320
  4.1658991390863480
  3.4790217965579730
  2.8327081246129390
  2.2513522041418490
  1.7443454407439450
  1.3139166765086160
  0.9534257809055111
  0.6485032594128646
  0.3842838821684980
  0.1512496301868526
 -0.0555698730620406
 -0.2403343986916573
 -0.4071720542929091
 -0.5579600558697515
 -0.6913262536593683
 -0.8045372064834484
 -0.8956352692101148
 -0.9633641874982077
 -1.0059367403319160
 -1.2283239632562590
 -1.2119925698487550
 -1.1633974422796630