 vasp.4.4.5 29Jan01
 serial version


--------------------------------------------------------------------------------------------------------


 INCAR:
 POTCAR:    PAW Sr                                
 POTCAR:    PAW Bi                                
 POTCAR:    PAW Ta                                
 POTCAR:    PAW O                                 
 POTCAR:    PAW Sr                                
   VRHFIN =Sr: 4s4p5s                                                           
   LEXCH  = 91                                                                  
   EATOM  =   843.6740 eV,   62.0083 Ry                                         
                                                                                
   TITEL  = PAW Sr                                                              
   LULTRA =        F    use ultrasoft PP ?                                      
   IUNSCR =        1    unscreen: 0-lin 1-nonlin 2-no                           
   RPACOR =    2.200    partial core radius                                     
   POMASS =   87.620; ZVAL   =   10.000    mass and valenz                      
   RCORE  =    2.500    outmost cutoff radius                                   
   RWIGS  =    4.040; RWIGS  =    2.138    wigner-seitz radius (au A)           
   ENMAX  =  226.196; ENMIN  =  169.647 eV                                      
   RCLOC  =    2.201    cutoff for local pot                                    
   LCOR   =        T    correct aug charges                                     
   LPAW   =        T    paw PP                                                  
   EAUG   =  366.804                                                            
   DEXC   =     .000                                                            
   RMAX   =    3.066    core radius for proj-oper                               
   RDEP   =    2.562    core radius for depl-charge                             
   QCUT   =   -4.077; QGAM   =    8.155    optimization parameters              
                                                                                
   Description                                                                  
     l     E      TYP  RCUT    TYP  RCUT                                        
     0   .000     23  2.500                                                     
     0   .000     23  2.500                                                     
     1   .000     23  2.500                                                     
     1   .000     23  2.500                                                     
     2   .000     23  2.500                                                     
     2   .000     23  2.500                                                     
  local pseudopotential read in
  partial core-charges read in
  atomic valenz-charges read in
  non local Contribution for L=           0  read in
    real space projection operators read in
  non local Contribution for L=           0  read in
    real space projection operators read in
  non local Contribution for L=           1  read in
    real space projection operators read in
  non local Contribution for L=           1  read in
    real space projection operators read in
  non local Contribution for L=           2  read in
    real space projection operators read in
  non local Contribution for L=           2  read in
    real space projection operators read in
    PAW grid and wavefunctions read in
 
   number of l-projection  operators is LMAX  =           6
   number of lm-projection operators is LMMAX =          18
 
 POTCAR:    PAW Bi                                
   VRHFIN =Bi:                                                                  
   LEXCH  = 91                                                                  
   EATOM  =  1960.2694 eV,  144.0757 Ry                                         
                                                                                
   TITEL  = PAW Bi                                                              
   LULTRA =        F    use ultrasoft PP ?                                      
   IUNSCR =        1    unscreen: 0-lin 1-nonlin 2-no                           
   RPACOR =    2.200    partial core radius                                     
   POMASS =  208.980; ZVAL   =   15.000    mass and valenz                      
   RCORE  =    2.500    outmost cutoff radius                                   
   RWIGS  =    3.090; RWIGS  =    1.635    wigner-seitz radius (au A)           
   ENMAX  =  242.843; ENMIN  =  182.132 eV                                      
   ICORE  =        3    local potential                                         
   LCOR   =        T    correct aug charges                                     
   LPAW   =        T    paw PP                                                  
   EAUG   =  442.899                                                            
   DEXC   =     .000                                                            
   RMAX   =    2.959    core radius for proj-oper                               
   RDEP   =    2.650    core radius for depl-charge                             
   QCUT   =   -4.225; QGAM   =    8.449    optimization parameters              
                                                                                
   Description                                                                  
     l     E      TYP  RCUT    TYP  RCUT                                        
     2   .000     23  2.500                                                     
     2  -.100     23  2.500                                                     
     0   .000     23  2.500                                                     
     0   .500     23  2.500                                                     
     1   .000     23  2.500                                                     
     1  1.000     23  2.500                                                     
     3  -.100      7  2.500                                                     
  local pseudopotential read in
  partial core-charges read in
  atomic valenz-charges read in
  non local Contribution for L=           2  read in
    real space projection operators read in
  non local Contribution for L=           2  read in
    real space projection operators read in
  non local Contribution for L=           0  read in
    real space projection operators read in
  non local Contribution for L=           0  read in
    real space projection operators read in
  non local Contribution for L=           1  read in
    real space projection operators read in
  non local Contribution for L=           1  read in
    real space projection operators read in
    PAW grid and wavefunctions read in
 
   number of l-projection  operators is LMAX  =           6
   number of lm-projection operators is LMMAX =          18
 
 POTCAR:    PAW Ta                                
   VRHFIN =Ta:  5p6s5d                                                          
   LEXCH  = 91                                                                  
   EATOM  =  1047.1517 eV,   76.9635 Ry                                         
                                                                                
   TITEL  = PAW Ta                                                              
   LULTRA =        F    use ultrasoft PP ?                                      
   IUNSCR =        1    unscreen: 0-lin 1-nonlin 2-no                           
   RPACOR =    2.330    partial core radius                                     
   POMASS =  180.948; ZVAL   =   11.000    mass and valenz                      
   RCORE  =    2.500    outmost cutoff radius                                   
   RWIGS  =    2.840; RWIGS  =    1.503    wigner-seitz radius (au A)           
   ENMAX  =  223.688; ENMIN  =  167.766 eV                                      
   RCLOC  =    2.205    cutoff for local pot                                    
   LCOR   =        T    correct aug charges                                     
   LPAW   =        T    paw PP                                                  
   EAUG   =  377.421                                                            
   DEXC   =    -.021                                                            
   RMAX   =    3.083    core radius for proj-oper                               
   RAUG   =    1.300    factor for augmentation sphere                          
   RDEP   =    2.526    radius for radial grids                                 
   QCUT   =   -4.055; QGAM   =    8.109    optimization parameters              
                                                                                
   Description                                                                  
     l     E      TYP  RCUT    TYP  RCUT                                        
     1   .000     23  2.500                                                     
     1   .100     23  2.500                                                     
     2   .000     23  2.500                                                     
     2   .000     23  2.500                                                     
     0   .000     23  2.500                                                     
     0   .000     23  2.500                                                     
     3   .000      7   .000                                                     
  local pseudopotential read in
  partial core-charges read in
  atomic valenz-charges read in
  non local Contribution for L=           1  read in
    real space projection operators read in
  non local Contribution for L=           1  read in
    real space projection operators read in
  non local Contribution for L=           2  read in
    real space projection operators read in
  non local Contribution for L=           2  read in
    real space projection operators read in
  non local Contribution for L=           0  read in
    real space projection operators read in
  non local Contribution for L=           0  read in
    real space projection operators read in
    PAW grid and wavefunctions read in
 
   number of l-projection  operators is LMAX  =           6
   number of lm-projection operators is LMMAX =          18
 
 POTCAR:    PAW O                                 
   VRHFIN =O: s2p4                                                              
   LEXCH  = 91                                                                  
   EATOM  =   433.0277 eV,   31.8266 Ry                                         
                                                                                
   TITEL  = PAW O                                                               
   LULTRA =        F    use ultrasoft PP ?                                      
   IUNSCR =        0    unscreen: 0-lin 1-nonlin 2-no                           
   RPACOR =     .000    partial core radius                                     
   POMASS =   16.000; ZVAL   =    6.000    mass and valenz                      
   RCORE  =    1.520    outmost cutoff radius                                   
   RWIGS  =    1.550; RWIGS  =     .820    wigner-seitz radius (au A)           
   ENMAX  =  400.000; ENMIN  =  300.000 eV                                      
   ICORE  =        2    local potential                                         
   LCOR   =        T    correct aug charges                                     
   LPAW   =        T    paw PP                                                  
   EAUG   =  605.392                                                            
   DEXC   =     .000                                                            
   RMAX   =    2.264    core radius for proj-oper                               
   RAUG   =    1.300    factor for augmentation sphere                          
   RDEP   =    1.550    radius for radial grids                                 
   QCUT   =   -5.520; QGAM   =   11.040    optimization parameters              
                                                                                
   Description                                                                  
     l     E      TYP  RCUT    TYP  RCUT                                        
     0   .000     23  1.200                                                     
     0  -.700     23  1.200                                                     
     1   .000     23  1.520                                                     
     1   .600     23  1.520                                                     
     2   .000      7  1.500                                                     
  local pseudopotential read in
  atomic valenz-charges read in
  non local Contribution for L=           0  read in
    real space projection operators read in
  non local Contribution for L=           0  read in
    real space projection operators read in
  non local Contribution for L=           1  read in
    real space projection operators read in
  non local Contribution for L=           1  read in
    real space projection operators read in
    PAW grid and wavefunctions read in
 
   number of l-projection  operators is LMAX  =           4
   number of lm-projection operators is LMMAX =           8
 

 ----------------------------------------------------------------------------- 
|                                                                             |
|  ADVICE TO THIS USER RUNNING 'VASP/VAMP'   (HEAR YOUR MASTER'S VOICE ...):  |
|                                                                             |
|      You have a (more or less) 'large supercell' and for larger cells       |
|      it might be more efficient to use real space projection opertators     |
|      So try LREAL=.TRUE. in the INCAR   file.                               |
|      Mind: If you want to do an extremely accurate calculations keep the    |
|      reciprocal projection scheme          (i.e. LREAL=.FALSE.)             |
|                                                                             |
 ----------------------------------------------------------------------------- 

  PAW Sr                                :
 energy of atom  1       EATOM= -843.6740
 kinetic energy error for atom=    0.0030 (will be added to EATOM!!)
  PAW Bi                                :
 energy of atom  2       EATOM=-1960.2694
 kinetic energy error for atom=    0.0072 (will be added to EATOM!!)
  PAW Ta                                :
 energy of atom  3       EATOM=-1047.1517
 kinetic energy error for atom=    0.0046 (will be added to EATOM!!)
  PAW O                                 :
 energy of atom  4       EATOM= -433.0277
 kinetic energy error for atom=    0.1156 (will be added to EATOM!!)
 
 EXHCAR: internal setup
 exchange correlation table for  LEXCH =        7
   RHO(1)=    0.500       N(1)  =     2000
   RHO(2)=  100.500       N(2)  =     4000
 
 POSCAR: SrBi2Ta2O9_P1_charge                    
  positions in direct lattice
  No initial velocities read in
 


--------------------------------------------------------------------------------------------------------


 ion  position               nearest neighbor table
   1  0.000  0.252  0.000-  22 2.50  42 2.58  43 2.58  21 2.64  41 2.66  44 2.66  53 2.70  56 2.70
                            21 2.90  22 3.03  54 3.03  55 3.03  20 3.44  17 3.44  18 3.49  19 3.49
   2  0.500  0.748  0.000-  21 2.50  41 2.58  44 2.58  22 2.64  43 2.66  42 2.66  54 2.70  55 2.70
                            22 2.90  21 3.03  53 3.03  56 3.03  18 3.44  19 3.44  17 3.49  20 3.49
   3  0.000  0.752  0.500-  24 2.50  46 2.58  47 2.58  23 2.64  45 2.66  48 2.66  49 2.70  52 2.70
                            23 2.90  24 3.03  50 3.03  51 3.03  16 3.44  13 3.44  14 3.49  15 3.49
   4  0.500  0.248  0.500-  23 2.50  45 2.58  48 2.58  24 2.64  47 2.66  46 2.66  50 2.70  51 2.70
                            24 2.90  23 3.03  49 3.03  52 3.03  14 3.44  15 3.44  13 3.49  16 3.49
   5  0.462  0.774  0.200-  35 2.18  38 2.29  33 2.31  40 2.49  32 2.57  30 2.67  12 3.71  12 3.71
                            10 3.72  10 3.72   7 3.72   7 3.72
   6  0.962  0.226  0.800-  36 2.18  37 2.29  34 2.31  39 2.49  31 2.57  29 2.67  11 3.71  11 3.71
                             9 3.72   9 3.72   8 3.72   8 3.72
   7  0.962  0.226  0.200-  33 2.18  40 2.29  35 2.31  38 2.49  30 2.57  32 2.67  10 3.71  10 3.71
                            12 3.72  12 3.72   5 3.72   5 3.72
   8  0.462  0.774  0.800-  34 2.18  39 2.29  36 2.31  37 2.49  29 2.57  31 2.67   9 3.71   9 3.71
                            11 3.72  11 3.72   6 3.72   6 3.72
   9  0.462  0.274  0.700-  39 2.18  34 2.29  37 2.31  36 2.49  28 2.57  26 2.67   8 3.71   8 3.71
                             6 3.72   6 3.72  11 3.72  11 3.72
  10  0.962  0.726  0.300-  40 2.18  33 2.29  38 2.31  35 2.49  27 2.57  25 2.67   7 3.71   7 3.71
                             5 3.72   5 3.72  12 3.72  12 3.72
  11  0.962  0.726  0.700-  37 2.18  36 2.29  39 2.31  34 2.49  26 2.57  28 2.67   6 3.71   6 3.71
                             8 3.72   8 3.72   9 3.72   9 3.72
  12  0.462  0.274  0.300-  38 2.18  35 2.29  40 2.31  33 2.49  25 2.57  27 2.67   5 3.71   5 3.71
                             7 3.72   7 3.72  10 3.72  10 3.72
  13  0.511  0.747  0.415-  25 1.86  50 1.95  46 1.96  52 2.00  48 2.01  23 2.15   3 3.44   4 3.49
                             4 3.49   3 3.54
  14  0.011  0.253  0.585-  26 1.86  49 1.95  45 1.96  51 2.00  47 2.01  24 2.15   4 3.44   3 3.49
                             3 3.49   4 3.54
  15  0.011  0.253  0.415-  27 1.86  52 1.95  48 1.96  50 2.00  46 2.01  24 2.15   4 3.44   3 3.49
                             3 3.49   4 3.54
  16  0.511  0.747  0.585-  28 1.86  51 1.95  47 1.96  49 2.00  45 2.01  23 2.15   3 3.44   4 3.49
                             4 3.49   3 3.54
  17  0.511  0.247  0.915-  29 1.86  54 1.95  42 1.96  56 2.00  44 2.01  21 2.15   1 3.44   2 3.49
                             2 3.49   1 3.54
  18  0.011  0.753  0.085-  30 1.86  53 1.95  41 1.96  55 2.00  43 2.01  22 2.15   2 3.44   1 3.49
                             1 3.49   2 3.54
  19  0.011  0.753  0.915-  31 1.86  56 1.95  44 1.96  54 2.00  42 2.01  22 2.15   2 3.44   1 3.49
                             1 3.49   2 3.54
  20  0.511  0.247  0.085-  32 1.86  55 1.95  43 1.96  53 2.00  41 2.01  21 2.15   1 3.44   2 3.49
                             2 3.49   1 3.54
  21  0.524  0.295  0.000-  17 2.15  20 2.15   2 2.50   1 2.64   1 2.90   2 3.03
  22  0.024  0.705  0.000-  18 2.15  19 2.15   1 2.50   2 2.64   2 2.90   1 3.03
  23  0.524  0.795  0.500-  13 2.15  16 2.15   4 2.50   3 2.64   3 2.90   4 3.03
  24  0.024  0.205  0.500-  14 2.15  15 2.15   3 2.50   4 2.64   4 2.90   3 3.03
  25  0.519  0.695  0.342-  13 1.86  12 2.57  10 2.67
  26  0.019  0.305  0.658-  14 1.86  11 2.57   9 2.67
  27  0.019  0.305  0.342-  15 1.86  10 2.57  12 2.67
  28  0.519  0.695  0.658-  16 1.86   9 2.57  11 2.67
  29  0.519  0.195  0.842-  17 1.86   8 2.57   6 2.67
  30  0.019  0.805  0.158-  18 1.86   7 2.57   5 2.67
  31  0.019  0.805  0.842-  19 1.86   6 2.57   8 2.67
  32  0.519  0.195  0.158-  20 1.86   5 2.57   7 2.67
  33  0.736  0.994  0.250-   7 2.18  10 2.29   5 2.31  12 2.49
  34  0.236  0.006  0.750-   8 2.18   9 2.29   6 2.31  11 2.49
  35  0.236  0.006  0.250-   5 2.18  12 2.29   7 2.31  10 2.49
  36  0.736  0.994  0.750-   6 2.18  11 2.29   8 2.31   9 2.49
  37  0.736  0.494  0.750-  11 2.18   6 2.29   9 2.31   8 2.49
  38  0.236  0.506  0.250-  12 2.18   5 2.29  10 2.31   7 2.49
  39  0.236  0.506  0.750-   9 2.18   8 2.29  11 2.31   6 2.49
  40  0.736  0.494  0.250-  10 2.18   7 2.29  12 2.31   5 2.49
  41  0.752  0.985  0.069-  18 1.96  20 2.01   2 2.58   1 2.66
  42  0.252  0.015  0.931-  17 1.96  19 2.01   1 2.58   2 2.66
  43  0.252  0.015  0.069-  20 1.96  18 2.01   1 2.58   2 2.66
  44  0.752  0.985  0.931-  19 1.96  17 2.01   2 2.58   1 2.66
  45  0.752  0.485  0.569-  14 1.96  16 2.01   4 2.58   3 2.66
  46  0.252  0.515  0.431-  13 1.96  15 2.01   3 2.58   4 2.66
  47  0.252  0.515  0.569-  16 1.96  14 2.01   3 2.58   4 2.66
  48  0.752  0.485  0.431-  15 1.96  13 2.01   4 2.58   3 2.66
  49  0.790  0.978  0.584-  14 1.95  16 2.00   3 2.70   4 3.03
  50  0.290  0.022  0.416-  13 1.95  15 2.00   4 2.70   3 3.03
  51  0.290  0.022  0.584-  16 1.95  14 2.00   4 2.70   3 3.03
  52  0.790  0.978  0.416-  15 1.95  13 2.00   3 2.70   4 3.03
  53  0.790  0.478  0.084-  18 1.95  20 2.00   1 2.70   2 3.03
  54  0.290  0.522  0.916-  17 1.95  19 2.00   2 2.70   1 3.03
  55  0.290  0.522  0.084-  20 1.95  18 2.00   2 2.70   1 3.03
  56  0.790  0.478  0.916-  19 1.95  17 2.00   1 2.70   2 3.03
 
  LATTYP: Found a simple orthorhombic cell.
 ALAT       =     5.5230000000
 B/A-ratio  =     1.0002498642
 C/A-ratio  =     4.5331558935
  
  Lattice vectors:
  
 A1 = (   5.5230000000,   0.0000000000,   0.0000000000)
 A2 = (   0.0000000000,   5.5243800000,   0.0000000000)
 A3 = (   0.0000000000,   0.0000000000,  25.0366200000)
 Subroutine PRICEL returns following result:
 
  LATTYP: Found a base centered orthorhombic cell.
 ALAT       =     5.5243800000
 B/A-ratio  =     4.5320235031
 C/A-ratio  =     0.9997501982
  
  Lattice vectors:
  
 A1 = (   0.0000000000,  -2.7621900000, -12.5183100000)
 A2 = (   0.0000000000,  -2.7621900000,  12.5183100000)
 A3 = (  -5.5230000000,   0.0000000000,   0.0000000000)
 
   2 primitive cells build up your supercell.
 

Analysis of symmetry for initial positions (statically):

 Routine SETGRP: Setting up the symmetry group for a 
 simple orthorhombic supercell.


 Subroutine GETGRP returns: Found  4 space group operations
 (whereof  2 operations were pure point group operations)
 out of a pool of  8 trial point group operations.


The static configuration has the point symmetry C_1h.
 The point group associated with its full space group is C_2v.

Analysis of symmetry for dynamics (positions and initial velocities):

 Subroutine DYNSYM returns: Found  4 space group operations
 (whereof  2 operations were pure point group operations)
 out of a pool of  4 trial space group operations
 (whereof  2 operations were pure point group operations)
 and found also     2 'primitive' translations


The dynamic configuration has the point symmetry C_1h.
 The point group associated with its full space group is C_2v.
 
 
 KPOINTS: Automatic mesh                          

Automatic generation of k-mesh.
 
 Subroutine IBZKPT returns following result:
 ===========================================
 
 Found      4 irreducible k-points:
 
 Following reciprocal coordinates:
            Coordinates               Weight
  0.000000  0.000000  0.000000      1.000000
  0.333333  0.000000  0.000000      2.000000
  0.000000  0.333333  0.000000      2.000000
  0.333333  0.333333  0.000000      4.000000
 
 Following cartesian coordinates:
            Coordinates               Weight
  0.000000  0.000000  0.000000      1.000000
  0.060354  0.000000  0.000000      2.000000
  0.000000  0.060339  0.000000      2.000000
  0.060354  0.060339  0.000000      4.000000
 


--------------------------------------------------------------------------------------------------------




 Dimension of arrays:
   k-Points           NKPTS =     4   number of bands    NBANDS=   278
   number of dos      NEDOS =   301   number of ions     NIONS =    56
   non local maximal  LDIM  =     6   non local SUM 2l+1 LMDIM =    18
   total plane-waves  NPLWV = 98784
   max r-space proj   IRMAX =     1   max aug-charges    IRDMAX=  4620
   dimension x,y,z NGX =    28 NGY =   28 NGZ =  126
   dimension x,y,z NGXF=    48 NGYF=   48 NGZF=  200
   support grid    NGXF=    48 NGYF=   48 NGZF=  200
   ions per type =               4   8   8  36
 NGX,Y,Z   is equivalent  to a cutoff of   8.43,  8.43,  8.37 a.u.
 NGXF,Y,Z  is equivalent  to a cutoff of  14.45, 14.44, 13.28 a.u.


 I would recommend the setting:
   dimension x,y,z NGX =    27 NGY =   27 NGZ =  122
 SYSTEM =  SrBi2Ta2O9_P1_charge                    
 POSCAR =  SrBi2Ta2O9_P1_charge                    

 Startparameter for this run:
   NWRITE =      2;   LPETIM=F    write-flag & timer
   PREC   = medium    medium, high low
   ISTART =      0    job   : 0-new  1-cont  2-samecut
   ICHARG =      2    charge: 1-file 2-atom 10-const
   ISPIN  =      1    spin polarized calculation?
   INIWAV =      1    electr: 0-lowe 1-rand  2-diag

 Electronic Relaxation 1
   ENCUT  =  400.0 eV  29.40 Ry    5.42 a.u.   9.01  9.01 40.83*2*pi/ulx,y,z
   ENINI  =  400.0     initial cutoff
   ENAUG  =  605.4 eV  augmentation charge cutoff
   NELM   =    100;   NELMIN=  2; NELMDL= -5     # of ELM steps 
   EDIFF  = 0.1E-03   stopping-criterion for ELM
   LREAL  =      F    real-space projection
   LCOMPAT=      F    compatible to vasp.3.2
   ROPT   =    0.00000   0.00000   0.00000   0.00000
 Ionic relaxation
   EDIFFG = -.2E-01   stopping-criterion for IOM
   NSW    =      0    number of steps for IOM
   NBLOCK =      1;   KBLOCK =      1    inner block; outer block 
   IBRION =     -1    ionic relax: 0-MD 1-quasi-New 2-CG
   ISIF   =      2    stress and relaxation
   IWAVPR =      0    prediction:  0-non 1-charg 2-wave 3-comb
   ISYM   =      2    0-nonsym 1-usesym 2-fastsym
   LCORR  =      T    Harris-Foulkes like correction to forces

   POTIM  =   0.50    time-step for ionic-motion
   TEIN   =    0.0    initial temperature
   TEBEG  =    0.0;   TEEND  =   0.0 temperature during run
   SMASS  =  -3.00    Nose mass-parameter (am)
   estimated Nose-frequenzy (Omega)   =  0.10E-29 period in steps =****** mass=  -0.697E-27a.u.
   NPACO  =    256;   APACO  = 16.0  distance and # of slots for P.C.
   PSTRESS=    0.0 pullay stress

  Mass of Ions in am
   POMASS =  87.62208.98180.95 16.00
  Ionic Valenz
   ZVAL   =  10.00 15.00 11.00  6.00
  Atomic Wigner-Seitz radii
   RWIGS  =  -1.00 -1.00 -1.00 -1.00
   NELECT =     464.0000    total number of electrons
   NUPDOWN=      -1.0000    fix difference up-down

 DOS related values:
   EMIN   =  10.00;   EMAX   =-10.00  energy-range for DOS
   ISMEAR =     0;   SIGMA  =   0.01  broadening in eV -4-tet -1-fermi 0-gaus

 Electronic relaxation 2 (details)
   IALGO  =      8    algorithm
   LDIAG  =      T    sub-space diagonalisation
   IMIX   =      4    mixing-type and parameters
     AMIX     =   0.40;   BMIX     =  1.00
     AMIX_MAG =   1.60;   BMIX_MAG =  1.00
     AMIN     =   0.10
     WC   =   100.;   INIMIX=   1;  MIXPRE=   1

 Intra band minimization:
   WEIMIN = 0.0000     energy-eigenvalue tresh-hold
   EBREAK =  0.90E-07  absolut break condition
   DEPER  =   0.30     relativ break condition  

   TIME   =   0.10     timestep for ELM

  volume/ion in A,a.u.               =      13.64        92.05
  Fermi-wavevector in a.u.,eV,Ry     =   1.386445 26.153533  1.922230
 Write flags
   LWAVE  =      F    write WAVECAR
   LCHARG =      T    write CHGCAR
   LVTOT  =      F    write LOCPOT, local potential
   LELF   =      F    write electronic localiz. function (ELF)
   LORBIT =      0    0 simple, 1 ext, 2 COOP (PROOUT)



--------------------------------------------------------------------------------------------------------


 Static calculation
 charge density will be updated during run
 non-spin polarized calculation
 Conjugate gradient sequential band-by-band (Teter, Alan, Payne)
 preconditioned conjugated gradient   charged. constant during bandupdate  
    band-by band algorithm
 performe sub-space diagonalisation
    before iterative eigenvector-optimisation
 modified Broyden-mixing scheme, WC =      100.0
 initial mixing is a Kerker type mixing with AMIX =  0.4000 and BMIX =      1.0000
 Hartree-type preconditioning will be used
 using additional bands           46
 reciprocal scheme for non local part
 use partial core corrections
 calculate Harris-corrections to forces 
   (improved forces if not selfconsistent)
 use gradient corrections 
 use of overlap-Matrix (Vanderbilt PP)
 Gauss-broadening in eV      SIGMA  =   0.01


--------------------------------------------------------------------------------------------------------


  energy-cutoff  :      400.00
  volume of cell :      763.90
      direct lattice vectors                 reciprocal lattice vectors
     5.523000000  0.000000000  0.000000000     0.181061018  0.000000000  0.000000000
     0.000000000  5.524380000  0.000000000     0.000000000  0.181015788  0.000000000
     0.000000000  0.000000000 25.036620000     0.000000000  0.000000000  0.039941494

  length of vectors
     5.523000000  5.524380000 25.036620000     0.181061018  0.181015788  0.039941494


 
 k-points in units of 2pi/SCALE and weight: Automatic mesh                          
   0.00000000  0.00000000  0.00000000       0.111
   0.06035367  0.00000000  0.00000000       0.222
   0.00000000  0.06033860  0.00000000       0.222
   0.06035367  0.06033860  0.00000000       0.444
 
 k-points in reciprocal lattice and weights: Automatic mesh                          
   0.00000000  0.00000000  0.00000000       0.111
   0.33333333  0.00000000  0.00000000       0.222
   0.00000000  0.33333333  0.00000000       0.222
   0.33333333  0.33333333  0.00000000       0.444
 
 position of ions in fractional coordinates (direct lattice) 
   0.00000000  0.25236770  0.00000000
   0.50000000  0.74763230  0.00000000
   0.00000000  0.75236770  0.50000000
   0.50000000  0.24763230  0.50000000
   0.46175800  0.77402500  0.20043600
   0.96175800  0.22597500  0.79956400
   0.96175800  0.22597500  0.20043600
   0.46175800  0.77402500  0.79956400
   0.46175800  0.27402500  0.70043600
   0.96175800  0.72597500  0.29956400
   0.96175800  0.72597500  0.70043600
   0.46175800  0.27402500  0.29956400
   0.51071100  0.74735650  0.41473600
   0.01071100  0.25264350  0.58526400
   0.01071100  0.25264350  0.41473600
   0.51071100  0.74735650  0.58526400
   0.51071100  0.24735650  0.91473600
   0.01071100  0.75264350  0.08526400
   0.01071100  0.75264350  0.91473600
   0.51071100  0.24735650  0.08526400
   0.52381300  0.29501100  0.00000000
   0.02381300  0.70498900  0.00000000
   0.52381300  0.79501100  0.50000000
   0.02381300  0.20498900  0.50000000
   0.51931200  0.69518740  0.34150900
   0.01931200  0.30481260  0.65849100
   0.01931200  0.30481260  0.34150900
   0.51931200  0.69518740  0.65849100
   0.51931200  0.19518740  0.84150900
   0.01931200  0.80481260  0.15849100
   0.01931200  0.80481260  0.84150900
   0.51931200  0.19518740  0.15849100
   0.73591200  0.99390730  0.25045130
   0.23591200  0.00609270  0.74954870
   0.23591200  0.00609270  0.25045130
   0.73591200  0.99390730  0.74954870
   0.73591200  0.49390730  0.75045130
   0.23591200  0.50609270  0.24954870
   0.23591200  0.50609270  0.75045130
   0.73591200  0.49390730  0.24954870
   0.75231300  0.98467780  0.06933900
   0.25231300  0.01532220  0.93066100
   0.25231300  0.01532220  0.06933900
   0.75231300  0.98467780  0.93066100
   0.75231300  0.48467780  0.56933900
   0.25231300  0.51532220  0.43066100
   0.25231300  0.51532220  0.56933900
   0.75231300  0.48467780  0.43066100
   0.78991200  0.97766730  0.58366100
   0.28991200  0.02233270  0.41633900
   0.28991200  0.02233270  0.58366100
   0.78991200  0.97766730  0.41633900
   0.78991200  0.47766730  0.08366100
   0.28991200  0.52233270  0.91633900
   0.28991200  0.52233270  0.08366100
   0.78991200  0.47766730  0.91633900
 
 position of ions in cartesian coordinates  (Angst):
   0.00000000  1.39417507  0.00000000
   2.76150000  4.13020493  0.00000000
   0.00000000  4.15636507 12.51831000
   2.76150000  1.36801493 12.51831000
   2.55028943  4.27600823  5.01823997
   5.31178943  1.24837177 20.01838003
   5.31178943  1.24837177  5.01823997
   2.55028943  4.27600823 20.01838003
   2.55028943  1.51381823 17.53654997
   5.31178943  4.01056177  7.50007003
   5.31178943  4.01056177 17.53654997
   2.55028943  1.51381823  7.50007003
   2.82065685  4.12868130 10.38358763
   0.05915685  1.39569870 14.65303237
   0.05915685  1.39569870 10.38358763
   2.82065685  4.12868130 14.65303237
   2.82065685  1.36649130 22.90189763
   0.05915685  4.15788870  2.13472237
   0.05915685  4.15788870 22.90189763
   2.82065685  1.36649130  2.13472237
   2.89301920  1.62975287  0.00000000
   0.13151920  3.89462713  0.00000000
   2.89301920  4.39194287 12.51831000
   0.13151920  1.13243713 12.51831000
   2.86816018  3.84047937  8.55023106
   0.10666018  1.68390063 16.48638894
   0.10666018  1.68390063  8.55023106
   2.86816018  3.84047937 16.48638894
   2.86816018  1.07828937 21.06854106
   0.10666018  4.44609063  3.96807894
   0.10666018  4.44609063 21.06854106
   2.86816018  1.07828937  3.96807894
   4.06444198  5.49072161  6.27045403
   1.30294198  0.03365839 18.76616597
   1.30294198  0.03365839  6.27045403
   4.06444198  5.49072161 18.76616597
   4.06444198  2.72853161 18.78876403
   1.30294198  2.79584839  6.24785597
   1.30294198  2.79584839 18.78876403
   4.06444198  2.72853161  6.24785597
   4.15502470  5.43973434  1.73601419
   1.39352470  0.08464566 23.30060581
   1.39352470  0.08464566  1.73601419
   4.15502470  5.43973434 23.30060581
   4.15502470  2.67754434 14.25432419
   1.39352470  2.84683566 10.78229581
   1.39352470  2.84683566 14.25432419
   4.15502470  2.67754434 10.78229581
   4.36268398  5.40100568 14.61289867
   1.60118398  0.12337432 10.42372133
   1.60118398  0.12337432 14.61289867
   4.36268398  5.40100568 10.42372133
   4.36268398  2.63881568  2.09458867
   1.60118398  2.88556432 22.94203133
   1.60118398  2.88556432  2.09458867
   4.36268398  2.63881568 22.94203133
 


--------------------------------------------------------------------------------------------------------


 k-point  1 :  0.00000.00000.0000  plane waves:  13829
 k-point  2 :  0.33330.00000.0000  plane waves:  13838
 k-point  3 :  0.00000.33330.0000  plane waves:  13838
 k-point  4 :  0.33330.33330.0000  plane waves:  13899

 maximum number of plane-waves:  13899
 maximal index in each direction: 
   IXMAX=  9   IYMAX=  9   IZMAX= 40
   IXMIN= -9   IYMIN= -9   IZMIN=-40

 WARNING: wrap around error must be expected set NGX to  38
 WARNING: wrap around error must be expected set NGY to  38
 WARNING: wrap around error must be expected set NGZ to 162
 For storing wavefunctions  246.44 MBYTES are necessary
 For predicting wavefunctions  137.42 MBYTES are necessary
Broyden mixing: mesh for mixing (old mesh)
   NGX = 19   NGY = 19   NGZ = 81
  (NGX  = 48   NGY  = 48   NGZ  =200)
 gives a total of  29241 points
 initial charge density was supplied:
 charge density of overlapping atoms calculated
 total number of electrons:            464.0000000
 keeping initial charge density in first step


--------------------------------------------------------------------------------------------------------


 Maximum index for augmentation-charges         4291 (set IRDMAX)


--------------------------------------------------------------------------------------------------------


 First call to EWALD:  gamma=   0.194
 Maximum number of real-space cells 4x 4x 1
 Maximum number of reciprocal cells 2x 2x 7

    FEWALD:  VPU time    0.03: CPU time    0.03


----------------------------------------- Iteration    1(   1)  ---------------------------------------


    POTLOK:  VPU time    1.84: CPU time    1.83
    SETDIJ:  VPU time    0.36: CPU time    0.36
    EDDIAG:  VPU time  136.67: CPU time  136.66
    EDSTEP:  VPU time 2441.08: CPU time 2440.97
    DOS   :  VPU time    0.00: CPU time    0.00
    ------------------------------------------
      LOOP:  VPU time 2580.64: CPU time 2580.50
 eigenvalue-minimisations  :  2714
 total energy-change (2. order) : 0.5246683E+04  (-0.1920931E+05)
 total number of electrons:            464.0000000
 number of augment-electrons   :       464.00000

 Energy of electron-ion system
  alpha Z + extp PSCENC =   0.251616900293E+04
  Ewald energy   TEWEN  =  -0.339910024807E+05
  -1/2 hartree   DENC   =  -0.962913636572E+04
  -V(xc)+E(xc)   XCENC  =   0.171874249735E+04
  PAW double counting   =   0.274390733646E+05 -0.270919738103E+05
  Entropy T*S    EENTRO =  -0.267632678642E-02
  eigenvalues    EBANDS =   0.126601800863E+04
  atomic energy  EATOM  =   0.430187950574E+05
  ---------------------------------------------------
  free energy    TOTEN  =   0.524668259787E+04

 energy without entropy=   0.524668527419E+04  energy(sigma->0) =  0.524668393603E+04


--------------------------------------------------------------------------------------------------------




----------------------------------------- Iteration    1(   2)  ---------------------------------------


    EDDIAG:  VPU time  136.55: CPU time  136.55
    EDSTEP:  VPU time 2006.00: CPU time 2005.89
    DOS   :  VPU time    0.00: CPU time    0.00
    ------------------------------------------
      LOOP:  VPU time 2143.23: CPU time 2143.12
 eigenvalue-minimisations  :  2227
 total energy-change (2. order) :-0.4790946E+04  (-0.3884579E+04)
 total number of electrons:            464.0000000
 number of augment-electrons   :       464.00000

 Energy of electron-ion system
  alpha Z + extp PSCENC =   0.251616900293E+04
  Ewald energy   TEWEN  =  -0.339910024807E+05
  -1/2 hartree   DENC   =  -0.962913636572E+04
  -V(xc)+E(xc)   XCENC  =   0.171874249735E+04
  PAW double counting   =   0.274390733646E+05 -0.270919738103E+05
  Entropy T*S    EENTRO =  -0.193224806854E-05
  eigenvalues    EBANDS =  -0.352493109332E+04
  atomic energy  EATOM  =   0.430187950574E+05
  ---------------------------------------------------
  free energy    TOTEN  =   0.455736170317E+03

 energy without entropy=   0.455736172249E+03  energy(sigma->0) =  0.455736171283E+03


--------------------------------------------------------------------------------------------------------




----------------------------------------- Iteration    1(   3)  ---------------------------------------


    EDDIAG:  VPU time  136.53: CPU time  136.48
    EDSTEP:  VPU time 2108.70: CPU time 2108.69
    DOS   :  VPU time    0.00: CPU time    0.00
    ------------------------------------------
      LOOP:  VPU time 2245.92: CPU time 2245.86
 eigenvalue-minimisations  :  2342
 total energy-change (2. order) :-0.8582069E+03  (-0.3605772E+03)
 total number of electrons:            464.0000000
 number of augment-electrons   :       464.00000

 Energy of electron-ion system
  alpha Z + extp PSCENC =   0.251616900293E+04
  Ewald energy   TEWEN  =  -0.339910024807E+05
  -1/2 hartree   DENC   =  -0.962913636572E+04
  -V(xc)+E(xc)   XCENC  =   0.171874249735E+04
  PAW double counting   =   0.274390733646E+05 -0.270919738103E+05
  Entropy T*S    EENTRO =  -0.833321282306E-18
  eigenvalues    EBANDS =  -0.438313803312E+04
  atomic energy  EATOM  =   0.430187950574E+05
  ---------------------------------------------------
  free energy    TOTEN  =  -0.402470767555E+03

 energy without entropy=  -0.402470767555E+03  energy(sigma->0) = -0.402470767555E+03


--------------------------------------------------------------------------------------------------------




----------------------------------------- Iteration    1(   4)  ---------------------------------------


    EDDIAG:  VPU time  136.22: CPU time  136.17
    EDSTEP:  VPU time 2832.97: CPU time 2832.91
    DOS   :  VPU time    0.00: CPU time    0.00
    ------------------------------------------
      LOOP:  VPU time 2969.88: CPU time 2969.77
 eigenvalue-minimisations  :  3157
 total energy-change (2. order) :-0.1276882E+03  (-0.3846926E+02)
 total number of electrons:            464.0000000
 number of augment-electrons   :       464.00000

 Energy of electron-ion system
  alpha Z + extp PSCENC =   0.251616900293E+04
  Ewald energy   TEWEN  =  -0.339910024807E+05
  -1/2 hartree   DENC   =  -0.962913636572E+04
  -V(xc)+E(xc)   XCENC  =   0.171874249735E+04
  PAW double counting   =   0.274390733646E+05 -0.270919738103E+05
  Entropy T*S    EENTRO =  -0.321845967689E-20
  eigenvalues    EBANDS =  -0.451082618328E+04
  atomic energy  EATOM  =   0.430187950574E+05
  ---------------------------------------------------
  free energy    TOTEN  =  -0.530158917715E+03

 energy without entropy=  -0.530158917715E+03  energy(sigma->0) = -0.530158917715E+03


--------------------------------------------------------------------------------------------------------




----------------------------------------- Iteration    1(   5)  ---------------------------------------


    EDDIAG:  VPU time  136.22: CPU time  136.19
    EDSTEP:  VPU time 3163.83: CPU time 3163.62
    DOS   :  VPU time    0.00: CPU time    0.00
    CHARGE:  VPU time   22.59: CPU time   22.58
    MIXING:  VPU time    0.06: CPU time    0.06
    ------------------------------------------
      LOOP:  VPU time 3323.39: CPU time 3323.14
 eigenvalue-minimisations  :  3528
 total energy-change (2. order) :-0.6297124E+01  (-0.1090694E+01)
 total number of electrons:            464.0001970
 number of augment-electrons   :       104.43047

 Broyden mixing:
  rms(total) = 0.53334E+01    rms(broyden)= 0.53316E+01
  rms(prec ) = 0.57047E+01
  weight for this iteration     100.00

 Energy of electron-ion system
  alpha Z + extp PSCENC =   0.251616900293E+04
  Ewald energy   TEWEN  =  -0.339910024807E+05
  -1/2 hartree   DENC   =  -0.962913636572E+04
  -V(xc)+E(xc)   XCENC  =   0.171874249735E+04
  PAW double counting   =   0.274390733646E+05 -0.270919738103E+05
  Entropy T*S    EENTRO =  -0.350817662699E-37
  eigenvalues    EBANDS =  -0.451712330775E+04
  atomic energy  EATOM  =   0.430187950574E+05
  ---------------------------------------------------
  free energy    TOTEN  =  -0.536456042187E+03

 energy without entropy=  -0.536456042187E+03  energy(sigma->0) = -0.536456042187E+03


--------------------------------------------------------------------------------------------------------




----------------------------------------- Iteration    1(   6)  ---------------------------------------


    POTLOK:  VPU time    1.84: CPU time    1.83
    SETDIJ:  VPU time    0.36: CPU time    0.36
    EDDIAG:  VPU time  136.06: CPU time  136.02
    EDSTEP:  VPU time 2148.50: CPU time 2148.38
    DOS   :  VPU time    0.00: CPU time    0.00
    CHARGE:  VPU time   22.62: CPU time   22.61
    MIXING:  VPU time    0.06: CPU time    0.06
    ------------------------------------------
      LOOP:  VPU time 2310.14: CPU time 2309.94
 eigenvalue-minimisations  :  2385
 total energy-change (2. order) : 0.8534486E+02  (-0.4374888E+02)
 total number of electrons:            464.0001855
 number of augment-electrons   :        98.59805

 Broyden mixing:
  rms(total) = 0.20630E+01    rms(broyden)= 0.20587E+01
  rms(prec ) = 0.21547E+01
  weight for this iteration     100.00

 eigenvalues of (default mixing * dielectric matrix)
  average eigenvalue GAMMA=   0.7700
  0.7700

 Energy of electron-ion system
  alpha Z + extp PSCENC =   0.251616900293E+04
  Ewald energy   TEWEN  =  -0.339910024807E+05
  -1/2 hartree   DENC   =  -0.100945858959E+05
  -V(xc)+E(xc)   XCENC  =   0.175869632593E+04
  PAW double counting   =   0.286232285031E+05 -0.282872612344E+05
  Entropy T*S    EENTRO =  -0.146748732911E-77
  eigenvalues    EBANDS =  -0.399515046067E+04
  atomic energy  EATOM  =   0.430187950574E+05
  ---------------------------------------------------
  free energy    TOTEN  =  -0.451111182314E+03

 energy without entropy=  -0.451111182314E+03  energy(sigma->0) = -0.451111182314E+03


--------------------------------------------------------------------------------------------------------




----------------------------------------- Iteration    1(   7)  ---------------------------------------


    POTLOK:  VPU time    1.86: CPU time    1.83
    SETDIJ:  VPU time    0.36: CPU time    0.36
    EDDIAG:  VPU time  136.28: CPU time  136.20
    EDSTEP:  VPU time 2546.36: CPU time 2546.30
    DOS   :  VPU time    0.00: CPU time    0.00
    CHARGE:  VPU time   22.56: CPU time   22.56
    MIXING:  VPU time    0.09: CPU time    0.06
    ------------------------------------------
      LOOP:  VPU time 2708.22: CPU time 2708.02
 eigenvalue-minimisations  :  2829
 total energy-change (2. order) : 0.2730931E+01  (-0.2691937E+01)
 total number of electrons:            464.0001869
 number of augment-electrons   :        99.57387

 Broyden mixing:
  rms(total) = 0.88627E+00    rms(broyden)= 0.88616E+00
  rms(prec ) = 0.93949E+00
  weight for this iteration     100.00

 eigenvalues of (default mixing * dielectric matrix)
  average eigenvalue GAMMA=   1.3200
  0.8361  1.8039

 Energy of electron-ion system
  alpha Z + extp PSCENC =   0.251616900293E+04
  Ewald energy   TEWEN  =  -0.339910024807E+05
  -1/2 hartree   DENC   =  -0.999262063286E+04
  -V(xc)+E(xc)   XCENC  =   0.175121282041E+04
  PAW double counting   =   0.287654290968E+05 -0.284322576239E+05
  Entropy T*S    EENTRO =  -0.557660183805E-27
  eigenvalues    EBANDS =  -0.408410549137E+04
  atomic energy  EATOM  =   0.430187950574E+05
  ---------------------------------------------------
  free energy    TOTEN  =  -0.448380251245E+03

 energy without entropy=  -0.448380251245E+03  energy(sigma->0) = -0.448380251245E+03


--------------------------------------------------------------------------------------------------------




----------------------------------------- Iteration    1(   8)  ---------------------------------------


    POTLOK:  VPU time    1.86: CPU time    1.86
    SETDIJ:  VPU time    0.36: CPU time    0.36
    EDDIAG:  VPU time  136.02: CPU time  135.94
    EDSTEP:  VPU time 2358.50: CPU time 2358.39
    DOS   :  VPU time    0.00: CPU time    0.00
    CHARGE:  VPU time   22.62: CPU time   22.62
    MIXING:  VPU time    0.09: CPU time    0.08
    ------------------------------------------
      LOOP:  VPU time 2520.16: CPU time 2519.95
 eigenvalue-minimisations  :  2624
 total energy-change (2. order) : 0.1559718E+01  (-0.4135252E+00)
 total number of electrons:            464.0001861
 number of augment-electrons   :        99.40271

 Broyden mixing:
  rms(total) = 0.31960E+00    rms(broyden)= 0.31951E+00
  rms(prec ) = 0.33855E+00
  weight for this iteration     100.00

 eigenvalues of (default mixing * dielectric matrix)
  average eigenvalue GAMMA=   1.3341
  2.2871  0.9641  0.7511

 Energy of electron-ion system
  alpha Z + extp PSCENC =   0.251616900293E+04
  Ewald energy   TEWEN  =  -0.339910024807E+05
  -1/2 hartree   DENC   =  -0.998574958752E+04
  -V(xc)+E(xc)   XCENC  =   0.175142042734E+04
  PAW double counting   =   0.292762325791E+05 -0.289506721612E+05
  Entropy T*S    EENTRO =  -0.413766844358E-25
  eigenvalues    EBANDS =  -0.408201337110E+04
  atomic energy  EATOM  =   0.430187950574E+05
  ---------------------------------------------------
  free energy    TOTEN  =  -0.446820533728E+03

 energy without entropy=  -0.446820533728E+03  energy(sigma->0) = -0.446820533728E+03


--------------------------------------------------------------------------------------------------------




----------------------------------------- Iteration    1(   9)  ---------------------------------------


    POTLOK:  VPU time    1.84: CPU time    1.80
    SETDIJ:  VPU time    0.38: CPU time    0.38
    EDDIAG:  VPU time  135.89: CPU time  135.80
    EDSTEP:  VPU time 2846.67: CPU time 2846.56
    DOS   :  VPU time    0.00: CPU time    0.00
    CHARGE:  VPU time   22.61: CPU time   22.61
    MIXING:  VPU time    0.11: CPU time    0.11
    ------------------------------------------
      LOOP:  VPU time 3008.19: CPU time 3007.94
 eigenvalue-minimisations  :  3172
 total energy-change (2. order) : 0.1221916E+00  (-0.7175410E-01)
 total number of electrons:            464.0001873
 number of augment-electrons   :        99.40310

 Broyden mixing:
  rms(total) = 0.93599E-01    rms(broyden)= 0.93452E-01
  rms(prec ) = 0.99137E-01
  weight for this iteration     100.00

 eigenvalues of (default mixing * dielectric matrix)
  average eigenvalue GAMMA=   1.2754
  2.3797  1.1651  0.8352  0.7217

 Energy of electron-ion system
  alpha Z + extp PSCENC =   0.251616900293E+04
  Ewald energy   TEWEN  =  -0.339910024807E+05
  -1/2 hartree   DENC   =  -0.997989492281E+04
  -V(xc)+E(xc)   XCENC  =   0.175097066609E+04
  PAW double counting   =   0.294341117162E+05 -0.291119879174E+05
  Entropy T*S    EENTRO =  -0.462858229662E-60
  eigenvalues    EBANDS =  -0.408385946393E+04
  atomic energy  EATOM  =   0.430187950574E+05
  ---------------------------------------------------
  free energy    TOTEN  =  -0.446698342148E+03

 energy without entropy=  -0.446698342148E+03  energy(sigma->0) = -0.446698342148E+03


--------------------------------------------------------------------------------------------------------




----------------------------------------- Iteration    1(  10)  ---------------------------------------


    POTLOK:  VPU time    1.84: CPU time    1.80
    SETDIJ:  VPU time    0.36: CPU time    0.36
    EDDIAG:  VPU time  135.84: CPU time  135.80
    EDSTEP:  VPU time 2642.33: CPU time 2642.23
    DOS   :  VPU time    0.00: CPU time    0.00
    CHARGE:  VPU time   22.62: CPU time   22.61
    MIXING:  VPU time    0.12: CPU time    0.12
    ------------------------------------------
      LOOP:  VPU time 2803.81: CPU time 2803.61
 eigenvalue-minimisations  :  2944
 total energy-change (2. order) : 0.1704483E-02  (-0.5678780E-02)
 total number of electrons:            464.0001869
 number of augment-electrons   :        99.39469

 Broyden mixing:
  rms(total) = 0.53426E-01    rms(broyden)= 0.53405E-01
  rms(prec ) = 0.56081E-01
  weight for this iteration     100.00

 eigenvalues of (default mixing * dielectric matrix)
  average eigenvalue GAMMA=   1.4576
  2.6607  2.1061  1.0513  0.7959  0.6737

 Energy of electron-ion system
  alpha Z + extp PSCENC =   0.251616900293E+04
  Ewald energy   TEWEN  =  -0.339910024807E+05
  -1/2 hartree   DENC   =  -0.997981014223E+04
  -V(xc)+E(xc)   XCENC  =   0.175094903506E+04
  PAW double counting   =   0.294709651224E+05 -0.291505893515E+05
  Entropy T*S    EENTRO =  -0.844307177542E-33
  eigenvalues    EBANDS =  -0.408217288104E+04
  atomic energy  EATOM  =   0.430187950574E+05
  ---------------------------------------------------
  free energy    TOTEN  =  -0.446696637665E+03

 energy without entropy=  -0.446696637665E+03  energy(sigma->0) = -0.446696637665E+03


--------------------------------------------------------------------------------------------------------




----------------------------------------- Iteration    1(  11)  ---------------------------------------


    POTLOK:  VPU time    1.84: CPU time    1.84
    SETDIJ:  VPU time    0.36: CPU time    0.36
    EDDIAG:  VPU time  135.95: CPU time  135.94
    EDSTEP:  VPU time 2467.84: CPU time 2467.73
    DOS   :  VPU time    0.00: CPU time    0.00
    CHARGE:  VPU time   22.66: CPU time   22.66
    MIXING:  VPU time    0.14: CPU time    0.14
    ------------------------------------------
      LOOP:  VPU time 2629.50: CPU time 2629.36
 eigenvalue-minimisations  :  2751
 total energy-change (2. order) :-0.1513848E-02  (-0.1791606E-02)
 total number of electrons:            464.0001872
 number of augment-electrons   :        99.37631

 Broyden mixing:
  rms(total) = 0.13753E-01    rms(broyden)= 0.13736E-01
  rms(prec ) = 0.14499E-01
  weight for this iteration     100.00

 eigenvalues of (default mixing * dielectric matrix)
  average eigenvalue GAMMA=   1.4161
  2.7450  2.2845  1.0168  1.0168  0.7818  0.6519

 Energy of electron-ion system
  alpha Z + extp PSCENC =   0.251616900293E+04
  Ewald energy   TEWEN  =  -0.339910024807E+05
  -1/2 hartree   DENC   =  -0.998120993955E+04
  -V(xc)+E(xc)   XCENC  =   0.175104139808E+04
  PAW double counting   =   0.294956926653E+05 -0.291770924178E+05
  Entropy T*S    EENTRO =  -0.295237717827E-26
  eigenvalues    EBANDS =  -0.407909143726E+04
  atomic energy  EATOM  =   0.430187950574E+05
  ---------------------------------------------------
  free energy    TOTEN  =  -0.446698151513E+03

 energy without entropy=  -0.446698151513E+03  energy(sigma->0) = -0.446698151513E+03


--------------------------------------------------------------------------------------------------------




----------------------------------------- Iteration    1(  12)  ---------------------------------------


    POTLOK:  VPU time    1.84: CPU time    1.83
    SETDIJ:  VPU time    0.36: CPU time    0.36
    EDDIAG:  VPU time  136.05: CPU time  136.02
    EDSTEP:  VPU time 2589.20: CPU time 2589.12
    DOS   :  VPU time    0.00: CPU time    0.00
    CHARGE:  VPU time   22.61: CPU time   22.59
    MIXING:  VPU time    0.14: CPU time    0.12
    ------------------------------------------
      LOOP:  VPU time 2750.91: CPU time 2750.75
 eigenvalue-minimisations  :  2889
 total energy-change (2. order) :-0.3332869E-03  (-0.2487891E-03)
 total number of electrons:            464.0001871
 number of augment-electrons   :        99.37749

 Broyden mixing:
  rms(total) = 0.48799E-02    rms(broyden)= 0.48742E-02
  rms(prec ) = 0.51710E-02
  weight for this iteration     100.00

 eigenvalues of (default mixing * dielectric matrix)
  average eigenvalue GAMMA=   1.3941
  2.7224  2.3825  1.3834  1.0305  0.8270  0.7680  0.6445

 Energy of electron-ion system
  alpha Z + extp PSCENC =   0.251616900293E+04
  Ewald energy   TEWEN  =  -0.339910024807E+05
  -1/2 hartree   DENC   =  -0.998075322817E+04
  -V(xc)+E(xc)   XCENC  =   0.175101748654E+04
  PAW double counting   =   0.294934132548E+05 -0.291750659917E+05
  Entropy T*S    EENTRO =  -0.831688452604-105
  eigenvalues    EBANDS =  -0.407927158589E+04
  atomic energy  EATOM  =   0.430187950574E+05
  ---------------------------------------------------
  free energy    TOTEN  =  -0.446698484800E+03

 energy without entropy=  -0.446698484800E+03  energy(sigma->0) = -0.446698484800E+03


--------------------------------------------------------------------------------------------------------




----------------------------------------- Iteration    1(  13)  ---------------------------------------


    POTLOK:  VPU time    1.84: CPU time    1.84
    SETDIJ:  VPU time    0.36: CPU time    0.36
    EDDIAG:  VPU time  136.08: CPU time  136.05
    EDSTEP:  VPU time 1514.09: CPU time 1514.06
    DOS   :  VPU time    0.00: CPU time    0.00
    ------------------------------------------
      LOOP:  VPU time 1653.08: CPU time 1653.02
 eigenvalue-minimisations  :  1677
 total energy-change (2. order) :-0.3781047E-04  (-0.2206027E-04)
 total number of electrons:            464.0001871
 number of augment-electrons   :        99.37749

 Energy of electron-ion system
  alpha Z + extp PSCENC =   0.251616900293E+04
  Ewald energy   TEWEN  =  -0.339910024807E+05
  -1/2 hartree   DENC   =  -0.998063000205E+04
  -V(xc)+E(xc)   XCENC  =   0.175101326399E+04
  PAW double counting   =   0.294905231255E+05 -0.291721719112E+05
  Entropy T*S    EENTRO =  -0.405238008836E-50
  eigenvalues    EBANDS =  -0.407939457851E+04
  atomic energy  EATOM  =   0.430187950574E+05
  ---------------------------------------------------
  free energy    TOTEN  =  -0.446698522610E+03

 energy without entropy=  -0.446698522610E+03  energy(sigma->0) = -0.446698522610E+03


--------------------------------------------------------------------------------------------------------


 E-fermi :   4.0058     XC(G=0): -10.9528     alpha+bet :-11.9191
   add alpha+bet to get absolut eigen values

 k-point   1 :       0.0000    0.0000    0.0000
  band No.  band energies     occupation 
      1        -30.0074         2.00000
      2        -30.0074         2.00000
      3        -30.0064         2.00000
      4        -30.0064         2.00000
      5        -30.0047         2.00000
      6        -30.0047         2.00000
      7        -30.0034         2.00000
      8        -30.0034         2.00000
      9        -29.9297         2.00000
     10        -29.9297         2.00000
     11        -29.9183         2.00000
     12        -29.9183         2.00000
     13        -29.9102         2.00000
     14        -29.9102         2.00000
     15        -29.9043         2.00000
     16        -29.9043         2.00000
     17        -29.8981         2.00000
     18        -29.8981         2.00000
     19        -29.8968         2.00000
     20        -29.8968         2.00000
     21        -29.8921         2.00000
     22        -29.8921         2.00000
     23        -29.8889         2.00000
     24        -29.8889         2.00000
     25        -28.1390         2.00000
     26        -28.1390         2.00000
     27        -28.0985         2.00000
     28        -28.0985         2.00000
     29        -18.5256         2.00000
     30        -18.5255         2.00000
     31        -18.5255         2.00000
     32        -18.5254         2.00000
     33        -18.5134         2.00000
     34        -18.5133         2.00000
     35        -18.3209         2.00000
     36        -18.3208         2.00000
     37        -18.3099         2.00000
     38        -18.3099         2.00000
     39        -18.2934         2.00000
     40        -18.2934         2.00000
     41        -18.2933         2.00000
     42        -18.2933         2.00000
     43        -18.2841         2.00000
     44        -18.2841         2.00000
     45        -18.2824         2.00000
     46        -18.2824         2.00000
     47        -18.2818         2.00000
     48        -18.2818         2.00000
     49        -18.2531         2.00000
     50        -18.2531         2.00000
     51        -18.2349         2.00000
     52        -18.2349         2.00000
     53        -18.2336         2.00000
     54        -18.2335         2.00000
     55        -18.2306         2.00000
     56        -18.2306         2.00000
     57        -18.2278         2.00000
     58        -18.2278         2.00000
     59        -18.2161         2.00000
     60        -18.2161         2.00000
     61        -18.2112         2.00000
     62        -18.2112         2.00000
     63        -18.2077         2.00000
     64        -18.2077         2.00000
     65        -18.2021         2.00000
     66        -18.2021         2.00000
     67        -18.1877         2.00000
     68        -18.1876         2.00000
     69        -14.9524         2.00000
     70        -14.9512         2.00000
     71        -13.9174         2.00000
     72        -13.9072         2.00000
     73        -13.7644         2.00000
     74        -13.7479         2.00000
     75        -13.2328         2.00000
     76        -13.2324         2.00000
     77        -13.1948         2.00000
     78        -13.1921         2.00000
     79        -13.1400         2.00000
     80        -13.1397         2.00000
     81        -13.1030         2.00000
     82        -13.1025         2.00000
     83        -12.6228         2.00000
     84        -12.5966         2.00000
     85        -12.5437         2.00000
     86        -12.5253         2.00000
     87        -12.4517         2.00000
     88        -12.4129         2.00000
     89        -12.4124         2.00000
     90        -12.4067         2.00000
     91        -12.3919         2.00000
     92        -12.3832         2.00000
     93        -12.3330         2.00000
     94        -12.3317         2.00000
     95        -12.3053         2.00000
     96        -12.2860         2.00000
     97        -12.1754         2.00000
     98        -12.1749         2.00000
     99        -12.1675         2.00000
    100        -12.1666         2.00000
    101        -11.6544         2.00000
    102        -11.6320         2.00000
    103        -11.5971         2.00000
    104        -11.5937         2.00000
    105        -10.3523         2.00000
    106        -10.3523         2.00000
    107        -10.2351         2.00000
    108        -10.2351         2.00000
    109        -10.1137         2.00000
    110        -10.1136         2.00000
    111        -10.0767         2.00000
    112        -10.0767         2.00000
    113         -9.9925         2.00000
    114         -9.9923         2.00000
    115         -9.9218         2.00000
    116         -9.9216         2.00000
    117         -6.2649         2.00000
    118         -6.2649         2.00000
    119         -6.1485         2.00000
    120         -6.1479         2.00000
    121         -5.8506         2.00000
    122         -5.8362         2.00000
    123         -3.5066         2.00000
    124         -3.4751         2.00000
    125         -1.5938         2.00000
    126         -1.5917         2.00000
    127         -1.5826         2.00000
    128         -1.5819         2.00000
    129         -1.5062         2.00000
    130         -1.5061         2.00000
    131         -1.4954         2.00000
    132         -1.4949         2.00000
    133         -1.1052         2.00000
    134         -1.1009         2.00000
    135         -1.0598         2.00000
    136         -0.9944         2.00000
    137         -0.9040         2.00000
    138         -0.9038         2.00000
    139         -0.9031         2.00000
    140         -0.8672         2.00000
    141         -0.8570         2.00000
    142         -0.8493         2.00000
    143         -0.7505         2.00000
    144         -0.6542         2.00000
    145         -0.3072         2.00000
    146         -0.2661         2.00000
    147         -0.1444         2.00000
    148         -0.1101         2.00000
    149         -0.0473         2.00000
    150         -0.0185         2.00000
    151          0.0473         2.00000
    152          0.1458         2.00000
    153          0.2577         2.00000
    154          0.4033         2.00000
    155          0.5301         2.00000
    156          0.6288         2.00000
    157          0.6694         2.00000
    158          0.6705         2.00000
    159          0.7086         2.00000
    160          0.9277         2.00000
    161          0.9399         2.00000
    162          0.9863         2.00000
    163          1.0017         2.00000
    164          1.0183         2.00000
    165          1.1039         2.00000
    166          1.1075         2.00000
    167          1.1161         2.00000
    168          1.1452         2.00000
    169          1.1874         2.00000
    170          1.2557         2.00000
    171          1.3286         2.00000
    172          1.3547         2.00000
    173          1.3548         2.00000
    174          1.4964         2.00000
    175          1.5486         2.00000
    176          1.5786         2.00000
    177          1.5952         2.00000
    178          1.6184         2.00000
    179          1.6355         2.00000
    180          1.7359         2.00000
    181          1.8168         2.00000
    182          1.8606         2.00000
    183          1.8846         2.00000
    184          1.9046         2.00000
    185          1.9088         2.00000
    186          2.0074         2.00000
    187          2.0275         2.00000
    188          2.0345         2.00000
    189          2.0686         2.00000
    190          2.0952         2.00000
    191          2.1004         2.00000
    192          2.2272         2.00000
    193          2.2656         2.00000
    194          2.2852         2.00000
    195          2.3828         2.00000
    196          2.3870         2.00000
    197          2.4086         2.00000
    198          2.5117         2.00000
    199          2.6060         2.00000
    200          2.6410         2.00000
    201          2.6940         2.00000
    202          2.7477         2.00000
    203          2.7523         2.00000
    204          2.7862         2.00000
    205          2.7940         2.00000
    206          2.8003         2.00000
    207          2.8242         2.00000
    208          2.8307         2.00000
    209          2.8348         2.00000
    210          2.8401         2.00000
    211          2.8469         2.00000
    212          2.8552         2.00000
    213          2.8937         2.00000
    214          2.9124         2.00000
    215          3.0722         2.00000
    216          3.0978         2.00000
    217          3.1430         2.00000
    218          3.2186         2.00000
    219          3.3140         2.00000
    220          3.4649         2.00000
    221          3.5254         2.00000
    222          3.5307         2.00000
    223          3.5912         2.00000
    224          3.6052         2.00000
    225          3.6523         2.00000
    226          3.6566         2.00000
    227          3.6594         2.00000
    228          3.6664         2.00000
    229          3.8583         2.00000
    230          3.8735         2.00000
    231          3.8974         2.00000
    232          3.9015         2.00000
    233          6.3882         0.00000
    234          6.4319         0.00000
    235          6.4576         0.00000
    236          6.4861         0.00000
    237          6.5524         0.00000
    238          6.5782         0.00000
    239          6.5973         0.00000
    240          6.6992         0.00000
    241          7.6504         0.00000
    242          7.6665         0.00000
    243          7.8058         0.00000
    244          7.8270         0.00000
    245          7.8676         0.00000
    246          7.8687         0.00000
    247          7.9593         0.00000
    248          7.9939         0.00000
    249          8.3495         0.00000
    250          8.3580         0.00000
    251          8.5942         0.00000
    252          8.6676         0.00000
    253          9.1230         0.00000
    254          9.1398         0.00000
    255          9.3088         0.00000
    256          9.3297         0.00000
    257          9.3411         0.00000
    258          9.3815         0.00000
    259          9.3903         0.00000
    260          9.5005         0.00000
    261          9.5378         0.00000
    262          9.5801         0.00000
    263          9.6012         0.00000
    264          9.6429         0.00000
    265          9.7785         0.00000
    266          9.8614         0.00000
    267          9.9850         0.00000
    268         10.0072         0.00000
    269         10.2382         0.00000
    270         10.3170         0.00000
    271         10.3823         0.00000
    272         10.4750         0.00000
    273         10.5449         0.00000
    274         10.7635         0.00000
    275         10.8043         0.00000
    276         10.9145         0.00000
    277         11.0236         0.00000
    278         11.1095         0.00000

 k-point   2 :       0.3333    0.0000    0.0000
  band No.  band energies     occupation 
      1        -29.9825         2.00000
      2        -29.9825         2.00000
      3        -29.9804         2.00000
      4        -29.9804         2.00000
      5        -29.9781         2.00000
      6        -29.9781         2.00000
      7        -29.9767         2.00000
      8        -29.9767         2.00000
      9        -29.9326         2.00000
     10        -29.9326         2.00000
     11        -29.9276         2.00000
     12        -29.9275         2.00000
     13        -29.9269         2.00000
     14        -29.9269         2.00000
     15        -29.9234         2.00000
     16        -29.9234         2.00000
     17        -29.9198         2.00000
     18        -29.9198         2.00000
     19        -29.9129         2.00000
     20        -29.9129         2.00000
     21        -29.9052         2.00000
     22        -29.9052         2.00000
     23        -29.8996         2.00000
     24        -29.8996         2.00000
     25        -28.1275         2.00000
     26        -28.1275         2.00000
     27        -28.1073         2.00000
     28        -28.1073         2.00000
     29        -18.5133         2.00000
     30        -18.5133         2.00000
     31        -18.5086         2.00000
     32        -18.5086         2.00000
     33        -18.4715         2.00000
     34        -18.4714         2.00000
     35        -18.3471         2.00000
     36        -18.3471         2.00000
     37        -18.3102         2.00000
     38        -18.3102         2.00000
     39        -18.2989         2.00000
     40        -18.2989         2.00000
     41        -18.2896         2.00000
     42        -18.2895         2.00000
     43        -18.2817         2.00000
     44        -18.2817         2.00000
     45        -18.2792         2.00000
     46        -18.2792         2.00000
     47        -18.2674         2.00000
     48        -18.2674         2.00000
     49        -18.2658         2.00000
     50        -18.2658         2.00000
     51        -18.2475         2.00000
     52        -18.2474         2.00000
     53        -18.2460         2.00000
     54        -18.2460         2.00000
     55        -18.2382         2.00000
     56        -18.2382         2.00000
     57        -18.2284         2.00000
     58        -18.2284         2.00000
     59        -18.2199         2.00000
     60        -18.2199         2.00000
     61        -18.2184         2.00000
     62        -18.2183         2.00000
     63        -18.2166         2.00000
     64        -18.2166         2.00000
     65        -18.2102         2.00000
     66        -18.2102         2.00000
     67        -18.1974         2.00000
     68        -18.1974         2.00000
     69        -14.5851         2.00000
     70        -14.5834         2.00000
     71        -13.7351         2.00000
     72        -13.7318         2.00000
     73        -13.5596         2.00000
     74        -13.5493         2.00000
     75        -13.5103         2.00000
     76        -13.4913         2.00000
     77        -13.0325         2.00000
     78        -13.0306         2.00000
     79        -13.0305         2.00000
     80        -13.0250         2.00000
     81        -12.9127         2.00000
     82        -12.9125         2.00000
     83        -12.8843         2.00000
     84        -12.8644         2.00000
     85        -12.7088         2.00000
     86        -12.6914         2.00000
     87        -12.6555         2.00000
     88        -12.6497         2.00000
     89        -12.5931         2.00000
     90        -12.5877         2.00000
     91        -12.4708         2.00000
     92        -12.4517         2.00000
     93        -12.4394         2.00000
     94        -12.4314         2.00000
     95        -12.3849         2.00000
     96        -12.3817         2.00000
     97        -12.3788         2.00000
     98        -12.3333         2.00000
     99        -12.2853         2.00000
    100        -12.2659         2.00000
    101        -11.7683         2.00000
    102        -11.7453         2.00000
    103        -11.6979         2.00000
    104        -11.6851         2.00000
    105        -10.2141         2.00000
    106        -10.2141         2.00000
    107        -10.1326         2.00000
    108        -10.1326         2.00000
    109        -10.1292         2.00000
    110        -10.1291         2.00000
    111        -10.0504         2.00000
    112        -10.0504         2.00000
    113         -9.9057         2.00000
    114         -9.9055         2.00000
    115         -9.8595         2.00000
    116         -9.8590         2.00000
    117         -6.1888         2.00000
    118         -6.1871         2.00000
    119         -5.9867         2.00000
    120         -5.9781         2.00000
    121         -5.3878         2.00000
    122         -5.3849         2.00000
    123         -4.0995         2.00000
    124         -4.0850         2.00000
    125         -1.3618         2.00000
    126         -1.3115         2.00000
    127         -1.2166         2.00000
    128         -1.1330         2.00000
    129         -1.0339         2.00000
    130         -0.9525         2.00000
    131         -0.9316         2.00000
    132         -0.9159         2.00000
    133         -0.9059         2.00000
    134         -0.8919         2.00000
    135         -0.8679         2.00000
    136         -0.8545         2.00000
    137         -0.5782         2.00000
    138         -0.5771         2.00000
    139         -0.4880         2.00000
    140         -0.4519         2.00000
    141         -0.4191         2.00000
    142         -0.3959         2.00000
    143         -0.3440         2.00000
    144         -0.1577         2.00000
    145         -0.1506         2.00000
    146         -0.0784         2.00000
    147         -0.0780         2.00000
    148         -0.0682         2.00000
    149         -0.0674         2.00000
    150          0.0606         2.00000
    151          0.1294         2.00000
    152          0.1498         2.00000
    153          0.1731         2.00000
    154          0.2024         2.00000
    155          0.2251         2.00000
    156          0.3017         2.00000
    157          0.3757         2.00000
    158          0.4184         2.00000
    159          0.4213         2.00000
    160          0.4256         2.00000
    161          0.4426         2.00000
    162          0.5706         2.00000
    163          0.5777         2.00000
    164          0.5899         2.00000
    165          0.6792         2.00000
    166          0.6795         2.00000
    167          0.7914         2.00000
    168          0.8350         2.00000
    169          0.8391         2.00000
    170          0.9346         2.00000
    171          1.0641         2.00000
    172          1.2725         2.00000
    173          1.2999         2.00000
    174          1.3028         2.00000
    175          1.3309         2.00000
    176          1.4150         2.00000
    177          1.5084         2.00000
    178          1.5581         2.00000
    179          1.5961         2.00000
    180          1.6117         2.00000
    181          1.6181         2.00000
    182          1.6653         2.00000
    183          1.6867         2.00000
    184          1.7282         2.00000
    185          1.7676         2.00000
    186          1.8406         2.00000
    187          1.8483         2.00000
    188          1.8818         2.00000
    189          1.8862         2.00000
    190          1.9964         2.00000
    191          2.1827         2.00000
    192          2.2655         2.00000
    193          2.2930         2.00000
    194          2.3557         2.00000
    195          2.4323         2.00000
    196          2.4459         2.00000
    197          2.4628         2.00000
    198          2.4769         2.00000
    199          2.4974         2.00000
    200          2.5137         2.00000
    201          2.5276         2.00000
    202          2.5722         2.00000
    203          2.6548         2.00000
    204          2.6790         2.00000
    205          2.6869         2.00000
    206          2.7241         2.00000
    207          2.7504         2.00000
    208          2.7675         2.00000
    209          2.8131         2.00000
    210          2.8336         2.00000
    211          2.8411         2.00000
    212          2.9076         2.00000
    213          2.9166         2.00000
    214          2.9689         2.00000
    215          2.9762         2.00000
    216          3.0749         2.00000
    217          3.0913         2.00000
    218          3.1427         2.00000
    219          3.2029         2.00000
    220          3.2523         2.00000
    221          3.2891         2.00000
    222          3.3154         2.00000
    223          3.3744         2.00000
    224          3.4229         2.00000
    225          3.4307         2.00000
    226          3.4325         2.00000
    227          3.4399         2.00000
    228          3.4766         2.00000
    229          3.5555         2.00000
    230          3.5800         2.00000
    231          3.7796         2.00000
    232          3.8108         2.00000
    233          7.2535         0.00000
    234          7.2734         0.00000
    235          7.3996         0.00000
    236          7.4342         0.00000
    237          7.4375         0.00000
    238          7.4804         0.00000
    239          7.6234         0.00000
    240          7.6662         0.00000
    241          7.6748         0.00000
    242          7.6862         0.00000
    243          7.9776         0.00000
    244          7.9948         0.00000
    245          8.0217         0.00000
    246          8.0429         0.00000
    247          8.1239         0.00000
    248          8.3223         0.00000
    249          8.3421         0.00000
    250          8.4546         0.00000
    251          8.4651         0.00000
    252          8.4976         0.00000
    253          8.5872         0.00000
    254          8.7473         0.00000
    255          8.7547         0.00000
    256          8.7762         0.00000
    257          8.9033         0.00000
    258          8.9735         0.00000
    259          9.1105         0.00000
    260          9.1459         0.00000
    261          9.1738         0.00000
    262          9.2059         0.00000
    263          9.2663         0.00000
    264          9.2896         0.00000
    265          9.4552         0.00000
    266          9.4718         0.00000
    267          9.4793         0.00000
    268          9.5036         0.00000
    269          9.5129         0.00000
    270          9.5784         0.00000
    271          9.8191         0.00000
    272          9.8458         0.00000
    273          9.9656         0.00000
    274          9.9724         0.00000
    275         10.0291         0.00000
    276         10.0547         0.00000
    277         10.1186         0.00000
    278         10.1626         0.00000

 k-point   3 :       0.0000    0.3333    0.0000
  band No.  band energies     occupation 
      1        -29.9816         2.00000
      2        -29.9816         2.00000
      3        -29.9802         2.00000
      4        -29.9801         2.00000
      5        -29.9789         2.00000
      6        -29.9789         2.00000
      7        -29.9769         2.00000
      8        -29.9769         2.00000
      9        -29.9317         2.00000
     10        -29.9317         2.00000
     11        -29.9274         2.00000
     12        -29.9274         2.00000
     13        -29.9259         2.00000
     14        -29.9259         2.00000
     15        -29.9244         2.00000
     16        -29.9244         2.00000
     17        -29.9217         2.00000
     18        -29.9217         2.00000
     19        -29.9121         2.00000
     20        -29.9121         2.00000
     21        -29.9056         2.00000
     22        -29.9056         2.00000
     23        -29.8992         2.00000
     24        -29.8992         2.00000
     25        -28.1276         2.00000
     26        -28.1276         2.00000
     27        -28.1073         2.00000
     28        -28.1073         2.00000
     29        -18.5169         2.00000
     30        -18.5169         2.00000
     31        -18.5155         2.00000
     32        -18.5155         2.00000
     33        -18.4608         2.00000
     34        -18.4608         2.00000
     35        -18.3438         2.00000
     36        -18.3438         2.00000
     37        -18.3129         2.00000
     38        -18.3129         2.00000
     39        -18.3000         2.00000
     40        -18.3000         2.00000
     41        -18.2879         2.00000
     42        -18.2878         2.00000
     43        -18.2779         2.00000
     44        -18.2779         2.00000
     45        -18.2762         2.00000
     46        -18.2761         2.00000
     47        -18.2712         2.00000
     48        -18.2712         2.00000
     49        -18.2643         2.00000
[...]
 -7.285  -5.993   0.002   0.000  -0.002   0.000   0.000   0.000  -0.001   0.000  -0.002   0.000  -0.001   0.000   0.000   0.000
 -0.001   0.002 -14.387   0.000  -0.003   0.086   0.000   0.000   0.000   0.000   0.000   0.000   0.000   0.000   0.000   0.000
  0.000   0.000   0.000 -14.395   0.000   0.000   0.087   0.000   0.000   0.000   0.000   0.000   0.000   0.000   0.000   0.000
  0.002  -0.002  -0.003   0.000 -14.390   0.000   0.000   0.086   0.000   0.000   0.000   0.000   0.000   0.000   0.000   0.000
  0.000   0.000   0.086   0.000   0.000   0.045   0.000   0.000   0.000   0.000   0.000   0.000   0.000   0.000   0.000   0.000
  0.000   0.000   0.000   0.087   0.000   0.000   0.045   0.000   0.000   0.000   0.000   0.000   0.000   0.000   0.000   0.000
  0.000   0.000   0.000   0.000   0.086   0.000   0.000   0.045   0.000   0.000   0.000   0.000   0.000   0.000   0.000   0.000
 -0.001  -0.001   0.000   0.000   0.000   0.000   0.000   0.000  -2.487   0.000   0.000   0.000   0.000   0.024   0.000   0.000
  0.000   0.000   0.000   0.000   0.000   0.000   0.000   0.000   0.000  -2.487   0.000   0.000   0.000   0.000   0.024   0.000
 -0.001  -0.002   0.000   0.000   0.000   0.000   0.000   0.000   0.000   0.000  -2.488   0.000   0.000   0.000   0.000   0.024
  0.000   0.000   0.000   0.000   0.000   0.000   0.000   0.000   0.000   0.000   0.000  -2.488   0.000   0.000   0.000   0.000
 -0.001  -0.001   0.000   0.000   0.000   0.000   0.000   0.000   0.000   0.000   0.000   0.000  -2.486   0.000   0.000   0.000
  0.000   0.000   0.000   0.000   0.000   0.000   0.000   0.000   0.024   0.000   0.000   0.000   0.000   0.006   0.000   0.000
  0.000   0.000   0.000   0.000   0.000   0.000   0.000   0.000   0.000   0.024   0.000   0.000   0.000   0.000   0.006   0.000
  0.000   0.000   0.000   0.000   0.000   0.000   0.000   0.000   0.000   0.000   0.024   0.000   0.000   0.000   0.000   0.006
  0.000   0.000   0.000   0.000   0.000   0.000   0.000   0.000   0.000   0.000   0.000   0.024   0.000   0.000   0.000   0.000
  0.000   0.000   0.000   0.000   0.000   0.000   0.000   0.000   0.000   0.000   0.000   0.000   0.024   0.000   0.000   0.000
 total augmentation occupancies for 1. ion:
  2.114  -0.244   0.006   0.000  -0.008  -0.019   0.000   0.021
 -0.244   0.515  -0.013   0.000   0.018   0.028   0.000  -0.027
  0.006  -0.013   2.029   0.000  -0.003   0.076   0.000   0.012
  0.000   0.000   0.000   2.024   0.000   0.000   0.107   0.000
 -0.008   0.018  -0.003   0.000   2.026   0.012   0.000   0.093
 -0.019   0.028   0.076   0.000   0.012   0.366   0.000  -0.020
  0.000   0.000   0.000   0.107   0.000   0.000   0.308   0.000
  0.021  -0.027   0.012   0.000   0.093  -0.020   0.000   0.330
  0.010  -0.016   0.001   0.000   0.008   0.006   0.000  -0.020
  0.000   0.000   0.000   0.012   0.000   0.000  -0.028   0.000
  0.015  -0.025   0.021   0.000  -0.005  -0.045   0.000   0.009
  0.000   0.000   0.000   0.007   0.000   0.000  -0.007   0.000
  0.010  -0.018   0.027   0.000   0.015  -0.056   0.000  -0.030
 -0.036   0.085   0.003   0.000  -0.038  -0.020   0.000   0.111
  0.000   0.000   0.000  -0.048   0.000   0.000   0.150   0.000
 -0.027   0.077  -0.054   0.000   0.010   0.192   0.000  -0.038
  0.000   0.000   0.000  -0.015   0.000   0.000   0.044   0.000
 -0.032   0.082  -0.071   0.000  -0.037   0.249   0.000   0.134


------------------------ aborting loop because EDIFF is reached ----------------------------------------


    CHARGE:  VPU time   23.42: CPU time   23.41
    FORLOC:  VPU time    0.66: CPU time    0.66
    FORNL :  VPU time  513.66: CPU time  513.64
    STRESS:  VPU time 2223.69: CPU time 2223.52
    FORCOR:  VPU time    2.09: CPU time    2.06
    FORHAR:  VPU time    1.00: CPU time    1.00
    MIXING:  VPU time    0.17: CPU time    0.17


--------------------------------------------------------------------------------------------------------



  FREE-ENERGIE OF THE ION-ELECTRON SYSTEM (eV)
  ---------------------------------------------------
  alpha Z        PSCENC =      2516.169003
  Ewald energy   TEWEN  =    -33991.002481
  -1/2 Hartree   DENC   =     -9980.630002
  -V(xc)+E(xc)   XCENC  =      1751.013264
  PAW double counting   =     29488.475881   -29170.101573
  entropy T*S    EENTRO =         0.000000
  eigenvalues    EBANDS =     -4079.394579
  atomic energy  EATOM  =     43018.795057
  ---------------------------------------------------
  free  energy   TOTEN  =      -446.698523 eV

  energy  without entropy=     -446.698523  energy(sigma->0) =     -446.698523
 

  FORCE on cell =-STRESS in cart. coord.  units (eV/reduce length):
  Direction    X        Y        Z        XY       YZ       ZX
  -------------------------------------------------------------------------------------
  Alpha Z  2516.17  2516.17  2516.17
  Ewald  -10722.39-10742.84-12525.94     0.00     0.00     0.00
  Hartree  3782.12  3695.08  2503.34     0.00     0.00     0.00
  E(xc)   -2208.87 -2208.44 -2210.58     0.00     0.00     0.00
  Local   -1727.85 -1625.22  1322.55     0.00     0.00     0.00
  n-local  -559.81  -557.40  -567.38     0.12     0.00     0.00
  augment  1507.43  1508.77  1503.39     0.00     0.00     0.00
  Kinetic  7414.20  7416.02  7468.35     1.22     0.00     0.00
  -------------------------------------------------------------------------------------
  Total       1.00     2.13     9.90     0.00     0.00     0.00
  in kB       2.10     4.48    20.76     0.00     0.00     0.00
  external pressure =        9.11 kB  Pullay stress =        0.00 kB


 VOLUME and BASIS-vectors are now :
 -----------------------------------------------------------------------------
  energy-cutoff  :      400.00
  volume of cell :      763.90
      direct lattice vectors                 reciprocal lattice vectors
     5.523000000  0.000000000  0.000000000     0.181061018  0.000000000  0.000000000
     0.000000000  5.524380000  0.000000000     0.000000000  0.181015788  0.000000000
     0.000000000  0.000000000 25.036620000     0.000000000  0.000000000  0.039941494

  length of vectors
     5.523000000  5.524380000 25.036620000     0.181061018  0.181015788  0.039941494


 FORCES acting on ions
    electron-ion (+dipol)            ewald-force                    non-local-force                 convergence-correction
 -----------------------------------------------------------------------------------------------
   -.251E+02 -.171E+01 -.773E-13   0.244E+02 0.228E+01 0.497E-13   0.779E+00 -.562E+00 0.000E+00   -.604E-04 -.762E-03 -.536E-12
   -.251E+02 0.171E+01 -.686E-13   0.244E+02 -.228E+01 0.114E-12   0.779E+00 0.562E+00 0.000E+00   -.604E-04 0.762E-03 -.450E-12
   -.251E+02 -.171E+01 0.922E-12   0.244E+02 0.228E+01 0.782E-13   0.779E+00 -.562E+00 0.169E-20   -.604E-04 -.762E-03 0.694E-12
   -.251E+02 0.171E+01 0.966E-12   0.244E+02 -.228E+01 -.355E-13   0.779E+00 0.562E+00 -.339E-20   -.604E-04 0.762E-03 0.810E-12
   -.574E+02 0.111E+03 0.322E+03   0.610E+02 -.116E+03 -.337E+03   -.355E+01 0.470E+01 0.139E+02   -.176E-02 0.274E-02 0.502E-01
   -.574E+02 -.111E+03 -.322E+03   0.610E+02 0.116E+03 0.337E+03   -.355E+01 -.470E+01 -.139E+02   -.176E-02 -.274E-02 -.502E-01
   -.574E+02 -.111E+03 0.322E+03   0.610E+02 0.116E+03 -.337E+03   -.355E+01 -.470E+01 0.139E+02   -.176E-02 -.274E-02 0.502E-01
   -.574E+02 0.111E+03 -.322E+03   0.610E+02 -.116E+03 0.337E+03   -.355E+01 0.470E+01 -.139E+02   -.176E-02 0.274E-02 -.502E-01
   -.574E+02 0.111E+03 0.322E+03   0.610E+02 -.116E+03 -.337E+03   -.355E+01 0.470E+01 0.139E+02   -.176E-02 0.274E-02 0.502E-01
   -.574E+02 -.111E+03 -.322E+03   0.610E+02 0.116E+03 0.337E+03   -.355E+01 -.470E+01 -.139E+02   -.176E-02 -.274E-02 -.502E-01
   -.574E+02 -.111E+03 0.322E+03   0.610E+02 0.116E+03 -.337E+03   -.355E+01 -.470E+01 0.139E+02   -.176E-02 -.274E-02 0.502E-01
   -.574E+02 0.111E+03 -.322E+03   0.610E+02 -.116E+03 0.337E+03   -.355E+01 0.470E+01 -.139E+02   -.176E-02 0.274E-02 -.502E-01
   0.124E+02 -.226E+02 0.483E+02   -.122E+02 0.228E+02 -.463E+02   -.234E+00 0.142E+00 -.575E+00   0.945E-03 -.454E-03 -.446E-01
   0.124E+02 0.226E+02 -.483E+02   -.122E+02 -.228E+02 0.463E+02   -.234E+00 -.142E+00 0.575E+00   0.945E-03 0.454E-03 0.446E-01
   0.124E+02 0.226E+02 0.483E+02   -.122E+02 -.228E+02 -.463E+02   -.234E+00 -.142E+00 -.575E+00   0.945E-03 0.454E-03 -.446E-01
   0.124E+02 -.226E+02 -.483E+02   -.122E+02 0.228E+02 0.463E+02   -.234E+00 0.142E+00 0.575E+00   0.945E-03 -.454E-03 0.446E-01
   0.124E+02 -.226E+02 0.483E+02   -.122E+02 0.228E+02 -.463E+02   -.234E+00 0.142E+00 -.575E+00   0.945E-03 -.454E-03 -.446E-01
   0.124E+02 0.226E+02 -.483E+02   -.122E+02 -.228E+02 0.463E+02   -.234E+00 -.142E+00 0.575E+00   0.945E-03 0.454E-03 0.446E-01
   0.124E+02 0.226E+02 0.483E+02   -.122E+02 -.228E+02 -.463E+02   -.234E+00 -.142E+00 -.575E+00   0.945E-03 0.454E-03 -.446E-01
   0.124E+02 -.226E+02 -.483E+02   -.122E+02 0.228E+02 0.463E+02   -.234E+00 0.142E+00 0.575E+00   0.945E-03 -.454E-03 0.446E-01
   0.745E+01 -.131E+02 -.739E-13   -.765E+01 0.137E+02 -.391E-13   0.114E+00 -.841E+00 -.339E-20   -.113E-02 -.347E-02 -.447E-12
   0.745E+01 0.131E+02 0.341E-12   -.765E+01 -.137E+02 -.426E-13   0.114E+00 0.841E+00 -.424E-21   -.113E-02 0.347E-02 -.289E-12
   0.745E+01 -.131E+02 0.112E-11   -.765E+01 0.137E+02 0.103E-12   0.114E+00 -.841E+00 0.148E-20   -.113E-02 -.347E-02 0.335E-12
   0.745E+01 0.131E+02 0.124E-11   -.765E+01 -.137E+02 0.103E-12   0.114E+00 0.841E+00 0.169E-20   -.113E-02 0.347E-02 0.509E-12
   0.286E+02 -.357E+02 0.652E+02   -.303E+02 0.360E+02 -.832E+02   0.187E+01 -.623E+00 0.167E+02   0.203E-03 -.184E-02 -.328E-01
   0.286E+02 0.357E+02 -.652E+02   -.303E+02 -.360E+02 0.832E+02   0.187E+01 0.623E+00 -.167E+02   0.203E-03 0.184E-02 0.328E-01
   0.286E+02 0.357E+02 0.652E+02   -.303E+02 -.360E+02 -.832E+02   0.187E+01 0.623E+00 0.167E+02   0.203E-03 0.184E-02 -.328E-01
   0.286E+02 -.357E+02 -.652E+02   -.303E+02 0.360E+02 0.832E+02   0.187E+01 -.623E+00 -.167E+02   0.203E-03 -.184E-02 0.328E-01
   0.286E+02 -.357E+02 0.652E+02   -.303E+02 0.360E+02 -.832E+02   0.187E+01 -.623E+00 0.167E+02   0.203E-03 -.184E-02 -.328E-01
   0.286E+02 0.357E+02 -.652E+02   -.303E+02 -.360E+02 0.832E+02   0.187E+01 0.623E+00 -.167E+02   0.203E-03 0.184E-02 0.328E-01
   0.286E+02 0.357E+02 0.652E+02   -.303E+02 -.360E+02 -.832E+02   0.187E+01 0.623E+00 0.167E+02   0.203E-03 0.184E-02 -.328E-01
   0.286E+02 -.357E+02 -.652E+02   -.303E+02 0.360E+02 0.832E+02   0.187E+01 -.623E+00 -.167E+02   0.203E-03 -.184E-02 0.328E-01
   0.154E+02 -.314E+00 -.587E+02   -.191E+02 0.338E+00 0.637E+02   0.352E+01 -.100E+00 -.478E+01   0.768E-03 -.166E-03 -.181E-02
   0.154E+02 0.314E+00 0.587E+02   -.191E+02 -.338E+00 -.637E+02   0.352E+01 0.100E+00 0.478E+01   0.768E-03 0.166E-03 0.181E-02
   0.154E+02 0.314E+00 -.587E+02   -.191E+02 -.338E+00 0.637E+02   0.352E+01 0.100E+00 -.478E+01   0.768E-03 0.166E-03 -.181E-02
   0.154E+02 -.314E+00 0.587E+02   -.191E+02 0.338E+00 -.637E+02   0.352E+01 -.100E+00 0.478E+01   0.768E-03 -.166E-03 0.181E-02
   0.154E+02 -.314E+00 -.587E+02   -.191E+02 0.338E+00 0.637E+02   0.352E+01 -.100E+00 -.478E+01   0.768E-03 -.166E-03 -.181E-02
   0.154E+02 0.314E+00 0.587E+02   -.191E+02 -.338E+00 -.637E+02   0.352E+01 0.100E+00 0.478E+01   0.768E-03 0.166E-03 0.181E-02
   0.154E+02 0.314E+00 -.587E+02   -.191E+02 -.338E+00 0.637E+02   0.352E+01 0.100E+00 -.478E+01   0.768E-03 0.166E-03 -.181E-02
   0.154E+02 -.314E+00 0.587E+02   -.191E+02 0.338E+00 -.637E+02   0.352E+01 -.100E+00 0.478E+01   0.768E-03 -.166E-03 0.181E-02
   0.161E+02 0.111E+02 -.567E+01   -.180E+02 -.109E+02 0.251E+01   0.194E+01 -.292E+00 0.314E+01   -.332E-03 0.862E-03 0.237E-01
   0.161E+02 -.111E+02 0.567E+01   -.180E+02 0.109E+02 -.251E+01   0.194E+01 0.292E+00 -.314E+01   -.332E-03 -.862E-03 -.237E-01
   0.161E+02 -.111E+02 -.567E+01   -.180E+02 0.109E+02 0.251E+01   0.194E+01 0.292E+00 0.314E+01   -.332E-03 -.862E-03 0.237E-01
   0.161E+02 0.111E+02 0.567E+01   -.180E+02 -.109E+02 -.251E+01   0.194E+01 -.292E+00 -.314E+01   -.332E-03 0.862E-03 -.237E-01
   0.161E+02 0.111E+02 -.567E+01   -.180E+02 -.109E+02 0.251E+01   0.194E+01 -.292E+00 0.314E+01   -.332E-03 0.862E-03 0.237E-01
   0.161E+02 -.111E+02 0.567E+01   -.180E+02 0.109E+02 -.251E+01   0.194E+01 0.292E+00 -.314E+01   -.332E-03 -.862E-03 -.237E-01
   0.161E+02 -.111E+02 -.567E+01   -.180E+02 0.109E+02 0.251E+01   0.194E+01 0.292E+00 0.314E+01   -.332E-03 -.862E-03 0.237E-01
   0.161E+02 0.111E+02 0.567E+01   -.180E+02 -.109E+02 -.251E+01   0.194E+01 -.292E+00 -.314E+01   -.332E-03 0.862E-03 -.237E-01
   -.966E+01 0.141E+02 -.576E+02   0.103E+02 -.170E+02 0.588E+02   -.634E+00 0.286E+01 -.879E+00   -.127E-02 -.124E-03 0.275E-01
   -.966E+01 -.141E+02 0.576E+02   0.103E+02 0.170E+02 -.588E+02   -.634E+00 -.286E+01 0.879E+00   -.127E-02 0.124E-03 -.275E-01
   -.966E+01 -.141E+02 -.576E+02   0.103E+02 0.170E+02 0.588E+02   -.634E+00 -.286E+01 -.879E+00   -.127E-02 0.124E-03 0.275E-01
   -.966E+01 0.141E+02 0.576E+02   0.103E+02 -.170E+02 -.588E+02   -.634E+00 0.286E+01 0.879E+00   -.127E-02 -.124E-03 -.275E-01
   -.966E+01 0.141E+02 -.576E+02   0.103E+02 -.170E+02 0.588E+02   -.634E+00 0.286E+01 -.879E+00   -.127E-02 -.124E-03 0.275E-01
   -.966E+01 -.141E+02 0.576E+02   0.103E+02 0.170E+02 -.588E+02   -.634E+00 -.286E+01 0.879E+00   -.127E-02 0.124E-03 -.275E-01
   -.966E+01 -.141E+02 -.576E+02   0.103E+02 0.170E+02 0.588E+02   -.634E+00 -.286E+01 -.879E+00   -.127E-02 0.124E-03 0.275E-01
   -.966E+01 0.141E+02 0.576E+02   0.103E+02 -.170E+02 -.588E+02   -.634E+00 0.286E+01 0.879E+00   -.127E-02 -.124E-03 -.275E-01
 -----------------------------------------------------------------------------------------------
   -.270E+02 0.119E-09 0.398E-10   0.114E-12 -.234E-12 0.126E-11   0.270E+02 -.178E-14 0.888E-14   -.164E-01 -.394E-10 0.386E-11
 
 
 POSITION                                       TOTAL-FORCE (eV/Angst)
 -----------------------------------------------------------------------------------
      0.00000      1.39418      0.00000         0.075741      0.014489      0.000000
      2.76150      4.13020      0.00000         0.075741     -0.014489      0.000000
      0.00000      4.15637     12.51831         0.075741      0.014489      0.000000
      2.76150      1.36801     12.51831         0.075741     -0.014489      0.000000
      2.55029      4.27601      5.01824         0.063766      0.052777     -0.569002
      5.31179      1.24837     20.01838         0.063766     -0.052777      0.569002
      5.31179      1.24837      5.01824         0.063766     -0.052777     -0.569002
      2.55029      4.27601     20.01838         0.063766      0.052777      0.569002
      2.55029      1.51382     17.53655         0.063766      0.052777     -0.569002
      5.31179      4.01056      7.50007         0.063766     -0.052777      0.569002
      5.31179      4.01056     17.53655         0.063766     -0.052777     -0.569002
      2.55029      1.51382      7.50007         0.063766      0.052777      0.569002
      2.82066      4.12868     10.38359        -0.008338      0.371423      1.388526
      0.05916      1.39570     14.65303        -0.008338     -0.371423     -1.388526
      0.05916      1.39570     10.38359        -0.008338     -0.371423      1.388526
      2.82066      4.12868     14.65303        -0.008338      0.371423     -1.388526
      2.82066      1.36649     22.90190        -0.008338      0.371423      1.388526
      0.05916      4.15789      2.13472        -0.008338     -0.371423     -1.388526
      0.05916      4.15789     22.90190        -0.008338     -0.371423      1.388526
      2.82066      1.36649      2.13472        -0.008338      0.371423     -1.388526
      2.89302      1.62975      0.00000        -0.089757     -0.211224      0.000000
      0.13152      3.89463      0.00000        -0.089757      0.211224      0.000000
      2.89302      4.39194     12.51831        -0.089757     -0.211224      0.000000
      0.13152      1.13244     12.51831        -0.089757      0.211224      0.000000
      2.86816      3.84048      8.55023         0.171318     -0.342398     -1.312128
      0.10666      1.68390     16.48639         0.171318      0.342398      1.312128
      0.10666      1.68390      8.55023         0.171318      0.342398     -1.312128
      2.86816      3.84048     16.48639         0.171318     -0.342398      1.312128
      2.86816      1.07829     21.06854         0.171318     -0.342398     -1.312128
      0.10666      4.44609      3.96808         0.171318      0.342398      1.312128
      0.10666      4.44609     21.06854         0.171318      0.342398     -1.312128
      2.86816      1.07829      3.96808         0.171318     -0.342398      1.312128
      4.06444      5.49072      6.27045        -0.209456     -0.076645      0.216932
      1.30294      0.03366     18.76617        -0.209456      0.076645     -0.216932
      1.30294      0.03366      6.27045        -0.209456      0.076645      0.216932
      4.06444      5.49072     18.76617        -0.209456     -0.076645     -0.216932
      4.06444      2.72853     18.78876        -0.209456     -0.076645      0.216932
      1.30294      2.79585      6.24786        -0.209456      0.076645     -0.216932
      1.30294      2.79585     18.78876        -0.209456      0.076645      0.216932
      4.06444      2.72853      6.24786        -0.209456     -0.076645     -0.216932
      4.15502      5.43973      1.73601        -0.018312     -0.055802      0.002480
      1.39352      0.08465     23.30061        -0.018312      0.055802     -0.002480
      1.39352      0.08465      1.73601        -0.018312      0.055802      0.002480
      4.15502      5.43973     23.30061        -0.018312     -0.055802     -0.002480
      4.15502      2.67754     14.25432        -0.018312     -0.055802      0.002480
      1.39352      2.84684     10.78230        -0.018312      0.055802     -0.002480
      1.39352      2.84684     14.25432        -0.018312      0.055802      0.002480
      4.15502      2.67754     10.78230        -0.018312     -0.055802     -0.002480
      4.36268      5.40101     14.61290         0.008029     -0.088296      0.293219
      1.60118      0.12337     10.42372         0.008029      0.088296     -0.293219
      1.60118      0.12337     14.61290         0.008029      0.088296      0.293219
      4.36268      5.40101     10.42372         0.008029     -0.088296     -0.293219
      4.36268      2.63882      2.09459         0.008029     -0.088296      0.293219
      1.60118      2.88556     22.94203         0.008029      0.088296     -0.293219
      1.60118      2.88556      2.09459         0.008029      0.088296      0.293219
      4.36268      2.63882     22.94203         0.008029     -0.088296     -0.293219
 -----------------------------------------------------------------------------------
    total drift:                               -0.067802      0.000000      0.000000


--------------------------------------------------------------------------------------------------------



 mean value of Nose-termostat <S>:     1.000 mean value of <T> :     0.000
 mean temperature <T/S>/<1/S>  :     0.000

     LOOP+:  VPU time36413.61: CPU time36411.09
  
  
 General timing and accounting informations for this job:
 ========================================================
  
                  Total CPU time used (sec):    36734.094
                            User time (sec):    36731.219
                          System time (sec):        2.875
                         Elapsed time (sec):    36985.844
  
                   Maximum memory used (kb):           0.
                   Average memory used (kb):           0.
  
                          Minor page faults:            0
                          Major page faults:            0
                 Voluntary context switches:            0